 Entering Gaussian System, Link 0=g16
 Initial command:
 /gpfs/loomis/apps/avx/software/Gaussian/16-C.01_AVX/g16/l1.exe "/home/jl3566/scratch60/g16/Gau-196003.inp" -scrdir="/home/jl3566/scratch60/g16/"
 Entering Link 1 = /gpfs/loomis/apps/avx/software/Gaussian/16-C.01_AVX/g16/l1.exe PID=    196004.
  
 Copyright (c) 1988-2019, Gaussian, Inc.  All Rights Reserved.
  
 This is part of the Gaussian(R) 16 program.  It is based on
 the Gaussian(R) 09 system (copyright 2009, Gaussian, Inc.),
 the Gaussian(R) 03 system (copyright 2003, Gaussian, Inc.),
 the Gaussian(R) 98 system (copyright 1998, Gaussian, Inc.),
 the Gaussian(R) 94 system (copyright 1995, Gaussian, Inc.),
 the Gaussian 92(TM) system (copyright 1992, Gaussian, Inc.),
 the Gaussian 90(TM) system (copyright 1990, Gaussian, Inc.),
 the Gaussian 88(TM) system (copyright 1988, Gaussian, Inc.),
 the Gaussian 86(TM) system (copyright 1986, Carnegie Mellon
 University), and the Gaussian 82(TM) system (copyright 1983,
 Carnegie Mellon University). Gaussian is a federally registered
 trademark of Gaussian, Inc.
  
 This software contains proprietary and confidential information,
 including trade secrets, belonging to Gaussian, Inc.
  
 This software is provided under written license and may be
 used, copied, transmitted, or stored only in accord with that
 written license.
  
 The following legend is applicable only to US Government
 contracts under FAR:
  
                    RESTRICTED RIGHTS LEGEND
  
 Use, reproduction and disclosure by the US Government is
 subject to restrictions as set forth in subparagraphs (a)
 and (c) of the Commercial Computer Software - Restricted
 Rights clause in FAR 52.227-19.
  
 Gaussian, Inc.
 340 Quinnipiac St., Bldg. 40, Wallingford CT 06492
  
  
 ---------------------------------------------------------------
 Warning -- This program may not be used in any manner that
 competes with the business of Gaussian, Inc. or will provide
 assistance to any competitor of Gaussian, Inc.  The licensee
 of this program is prohibited from giving any competitor of
 Gaussian, Inc. access to this program.  By using this program,
 the user acknowledges that Gaussian, Inc. is engaged in the
 business of creating and licensing software in the field of
 computational chemistry and represents and warrants to the
 licensee that it is not a competitor of Gaussian, Inc. and that
 it will not use this program in any manner prohibited above.
 ---------------------------------------------------------------
  

 Cite this work as:
 Gaussian 16, Revision C.01,
 M. J. Frisch, G. W. Trucks, H. B. Schlegel, G. E. Scuseria, 
 M. A. Robb, J. R. Cheeseman, G. Scalmani, V. Barone, 
 G. A. Petersson, H. Nakatsuji, X. Li, M. Caricato, A. V. Marenich, 
 J. Bloino, B. G. Janesko, R. Gomperts, B. Mennucci, H. P. Hratchian, 
 J. V. Ortiz, A. F. Izmaylov, J. L. Sonnenberg, D. Williams-Young, 
 F. Ding, F. Lipparini, F. Egidi, J. Goings, B. Peng, A. Petrone, 
 T. Henderson, D. Ranasinghe, V. G. Zakrzewski, J. Gao, N. Rega, 
 G. Zheng, W. Liang, M. Hada, M. Ehara, K. Toyota, R. Fukuda, 
 J. Hasegawa, M. Ishida, T. Nakajima, Y. Honda, O. Kitao, H. Nakai, 
 T. Vreven, K. Throssell, J. A. Montgomery, Jr., J. E. Peralta, 
 F. Ogliaro, M. J. Bearpark, J. J. Heyd, E. N. Brothers, K. N. Kudin, 
 V. N. Staroverov, T. A. Keith, R. Kobayashi, J. Normand, 
 K. Raghavachari, A. P. Rendell, J. C. Burant, S. S. Iyengar, 
 J. Tomasi, M. Cossi, J. M. Millam, M. Klene, C. Adamo, R. Cammi, 
 J. W. Ochterski, R. L. Martin, K. Morokuma, O. Farkas, 
 J. B. Foresman, and D. J. Fox, Gaussian, Inc., Wallingford CT, 2019.
 
 ******************************************
 Gaussian 16:  ES64L-G16RevC.01  3-Jul-2019
                16-Nov-2021 
 ******************************************
 %chk=Q1H-opt-4.chk
 %nproc=4
 Will use up to    4 processors via shared memory.
 %mem=4GB
 ----------------------------------------------------------------------
 # MP2/6-31G* Opt=(Redundant,maxstep=5,calcFC) vshift=1000 integral=(gr
 id=superfine) SCF=(Tight,xqc) Geom=PrintInputOrient
 ----------------------------------------------------------------------
 1/8=5,10=4,18=20,19=15,38=1/1,3;
 2/9=2110,12=2,17=6,18=5,40=1/2;
 3/5=1,6=6,7=1,11=9,25=1,30=1,71=2,75=-7,140=1/1,2,3;
 4//1;
 5/5=2,8=3,10=1000,13=1,32=2,38=5/2,8;
 8/6=3,8=1,10=2,19=11,30=-1/1;
 9/15=3,16=-3/6;
 11/6=1,8=1,15=11,17=12,24=-1,27=1,28=-2,29=300,32=6,42=3/1,2,10;
 10/6=2,21=1/2;
 8/6=4,8=1,10=2,19=11,30=-1/11,4;
 10/5=1,20=4/2;
 11/12=2,14=11,16=1,17=2,28=-2,42=3,76=2/2,10,12;
 6/7=2,8=2,9=2,10=2/1;
 7/10=1,12=2,25=1,44=2/1,2,3,16;
 1/8=5,10=4,18=20,19=15/3(2);
 2/9=2110/2;
 99//99;
 2/9=2110/2;
 3/5=1,6=6,7=1,11=9,25=1,30=1,71=1,75=-7/1,2,3;
 4/5=5,16=3,69=1/1;
 5/5=2,8=3,10=1000,13=1,32=2,38=5/2,8;
 8/6=4,10=2/1;
 9/15=2,16=-3/6;
 10/5=1/2;
 7/12=2/1,2,3,16;
 1/8=5,18=20,19=15/3(-8);
 2/9=2110/2;
 6/7=2,8=2,9=2,10=2/1;
 99/9=10/99;
 --------------------------------------------------
 <qmtool> simtype="Geometry optimization" </qmtool>
 --------------------------------------------------
 Symbolic Z-matrix:
 Charge = -1 Multiplicity = 2
 C1                   -0.24366  -1.5186   -0.64867 
 C2                    0.2701   -2.89602  -0.9742 
 C3                   -1.62403  -1.46313  -0.18506 
 O4                   -2.35426  -2.49966  -0.06889 
 C5                   -2.13127  -0.13321   0.12494 
 O6                   -3.45553   0.02051   0.49647 
 C7                   -1.35246   0.99717   0.02118 
 O8                   -1.86506   2.22501   0.40298 
 C9                    0.01136   0.94186  -0.47781 
 O10                   0.69276   1.99994  -0.63915 
 C11                   0.53664  -0.3861   -0.78104 
 C12                   1.97488  -0.42767  -1.24129 
 H13                   1.00185  -3.24917  -0.23725 
 H14                  -0.58223  -3.5784   -0.96213 
 H15                   0.75287  -2.93217  -1.95844 
 C16                  -3.7587   -0.66016   1.71787 
 H17                  -3.53904  -1.72414   1.62216 
 H18                  -3.1909   -0.22094   2.54924 
 H19                  -4.82653  -0.50116   1.89183 
 C20                  -2.16401   3.04344  -0.72726 
 H21                  -2.92861   2.5671   -1.35406 
 H22                  -2.55825   3.98213  -0.32893 
 H23                  -1.26208   3.23916  -1.31338 
 H24                   2.08998  -1.17195  -2.04048 
 H25                   2.22036   0.55082  -1.66096 
 C26                   2.90743  -0.78005  -0.11215 
 H27                   2.4283   -0.51151   0.8316 
 C28                   4.79955  -1.70343  -1.50507 
 C29                   4.1339   -1.33406  -0.2046 
 H30                   4.72794  -2.78348  -1.69476 
 H31                   4.37361  -1.15245  -2.34562 
 C32                   4.93534  -1.63248   1.0357 
 H33                   4.38476  -1.36604   1.94316 
 H34                   5.19348  -2.6986    1.09147 
 H35                   5.88241  -1.07806   1.03395 
 H36                   5.86803  -1.46147  -1.45597 
 

 GradGradGradGradGradGradGradGradGradGradGradGradGradGradGradGradGradGrad
 Berny optimization.
 Initialization pass.
                           ----------------------------
                           !    Initial Parameters    !
                           ! (Angstroms and Degrees)  !
 --------------------------                            --------------------------
 ! Name  Definition              Value          Derivative Info.                !
 --------------------------------------------------------------------------------
 ! R1    R(1,2)                  1.5057         calculate D2E/DX2 analytically  !
 ! R2    R(1,3)                  1.4572         calculate D2E/DX2 analytically  !
 ! R3    R(1,11)                 1.3816         calculate D2E/DX2 analytically  !
 ! R4    R(2,13)                 1.0969         calculate D2E/DX2 analytically  !
 ! R5    R(2,14)                 1.0919         calculate D2E/DX2 analytically  !
 ! R6    R(2,15)                 1.0969         calculate D2E/DX2 analytically  !
 ! R7    R(3,4)                  1.2732         calculate D2E/DX2 analytically  !
 ! R8    R(3,5)                  1.4567         calculate D2E/DX2 analytically  !
 ! R9    R(5,6)                  1.384          calculate D2E/DX2 analytically  !
 ! R10   R(5,7)                  1.3766         calculate D2E/DX2 analytically  !
 ! R11   R(6,16)                 1.4308         calculate D2E/DX2 analytically  !
 ! R12   R(7,8)                  1.3842         calculate D2E/DX2 analytically  !
 ! R13   R(7,9)                  1.4533         calculate D2E/DX2 analytically  !
 ! R14   R(8,20)                 1.4271         calculate D2E/DX2 analytically  !
 ! R15   R(9,10)                 1.2688         calculate D2E/DX2 analytically  !
 ! R16   R(9,11)                 1.4599         calculate D2E/DX2 analytically  !
 ! R17   R(11,12)                1.5107         calculate D2E/DX2 analytically  !
 ! R18   R(12,24)                1.0981         calculate D2E/DX2 analytically  !
 ! R19   R(12,25)                1.0926         calculate D2E/DX2 analytically  !
 ! R20   R(12,26)                1.5062         calculate D2E/DX2 analytically  !
 ! R21   R(16,17)                1.0906         calculate D2E/DX2 analytically  !
 ! R22   R(16,18)                1.0984         calculate D2E/DX2 analytically  !
 ! R23   R(16,19)                1.0935         calculate D2E/DX2 analytically  !
 ! R24   R(20,21)                1.0974         calculate D2E/DX2 analytically  !
 ! R25   R(20,22)                1.0933         calculate D2E/DX2 analytically  !
 ! R26   R(20,23)                1.0933         calculate D2E/DX2 analytically  !
 ! R27   R(26,27)                1.0919         calculate D2E/DX2 analytically  !
 ! R28   R(26,29)                1.349          calculate D2E/DX2 analytically  !
 ! R29   R(28,29)                1.5069         calculate D2E/DX2 analytically  !
 ! R30   R(28,30)                1.0989         calculate D2E/DX2 analytically  !
 ! R31   R(28,31)                1.0916         calculate D2E/DX2 analytically  !
 ! R32   R(28,36)                1.0966         calculate D2E/DX2 analytically  !
 ! R33   R(29,32)                1.5066         calculate D2E/DX2 analytically  !
 ! R34   R(32,33)                1.0944         calculate D2E/DX2 analytically  !
 ! R35   R(32,34)                1.0983         calculate D2E/DX2 analytically  !
 ! R36   R(32,35)                1.0974         calculate D2E/DX2 analytically  !
 ! A1    A(2,1,3)              115.266          calculate D2E/DX2 analytically  !
 ! A2    A(2,1,11)             122.4398         calculate D2E/DX2 analytically  !
 ! A3    A(3,1,11)             122.2941         calculate D2E/DX2 analytically  !
 ! A4    A(1,2,13)             112.1401         calculate D2E/DX2 analytically  !
 ! A5    A(1,2,14)             107.6351         calculate D2E/DX2 analytically  !
 ! A6    A(1,2,15)             111.9825         calculate D2E/DX2 analytically  !
 ! A7    A(13,2,14)            108.1859         calculate D2E/DX2 analytically  !
 ! A8    A(13,2,15)            107.3755         calculate D2E/DX2 analytically  !
 ! A9    A(14,2,15)            109.4444         calculate D2E/DX2 analytically  !
 ! A10   A(1,3,4)              122.7736         calculate D2E/DX2 analytically  !
 ! A11   A(1,3,5)              115.6136         calculate D2E/DX2 analytically  !
 ! A12   A(4,3,5)              121.608          calculate D2E/DX2 analytically  !
 ! A13   A(3,5,6)              119.4536         calculate D2E/DX2 analytically  !
 ! A14   A(3,5,7)              122.4534         calculate D2E/DX2 analytically  !
 ! A15   A(6,5,7)              118.0581         calculate D2E/DX2 analytically  !
 ! A16   A(5,6,16)             112.2772         calculate D2E/DX2 analytically  !
 ! A17   A(5,7,8)              119.8723         calculate D2E/DX2 analytically  !
 ! A18   A(5,7,9)              121.7048         calculate D2E/DX2 analytically  !
 ! A19   A(8,7,9)              118.4223         calculate D2E/DX2 analytically  !
 ! A20   A(7,8,20)             111.5816         calculate D2E/DX2 analytically  !
 ! A21   A(7,9,10)             121.0578         calculate D2E/DX2 analytically  !
 ! A22   A(7,9,11)             116.3328         calculate D2E/DX2 analytically  !
 ! A23   A(10,9,11)            122.6091         calculate D2E/DX2 analytically  !
 ! A24   A(1,11,9)             121.499          calculate D2E/DX2 analytically  !
 ! A25   A(1,11,12)            122.9783         calculate D2E/DX2 analytically  !
 ! A26   A(9,11,12)            115.5226         calculate D2E/DX2 analytically  !
 ! A27   A(11,12,24)           109.8874         calculate D2E/DX2 analytically  !
 ! A28   A(11,12,25)           107.8353         calculate D2E/DX2 analytically  !
 ! A29   A(11,12,26)           111.5606         calculate D2E/DX2 analytically  !
 ! A30   A(24,12,25)           107.6912         calculate D2E/DX2 analytically  !
 ! A31   A(24,12,26)           108.7907         calculate D2E/DX2 analytically  !
 ! A32   A(25,12,26)           110.998          calculate D2E/DX2 analytically  !
 ! A33   A(6,16,17)            110.2752         calculate D2E/DX2 analytically  !
 ! A34   A(6,16,18)            110.2651         calculate D2E/DX2 analytically  !
 ! A35   A(6,16,19)            105.8752         calculate D2E/DX2 analytically  !
 ! A36   A(17,16,18)           110.6352         calculate D2E/DX2 analytically  !
 ! A37   A(17,16,19)           110.6396         calculate D2E/DX2 analytically  !
 ! A38   A(18,16,19)           109.0401         calculate D2E/DX2 analytically  !
 ! A39   A(8,20,21)            110.4479         calculate D2E/DX2 analytically  !
 ! A40   A(8,20,22)            106.2236         calculate D2E/DX2 analytically  !
 ! A41   A(8,20,23)            110.7583         calculate D2E/DX2 analytically  !
 ! A42   A(21,20,22)           109.2404         calculate D2E/DX2 analytically  !
 ! A43   A(21,20,23)           110.2591         calculate D2E/DX2 analytically  !
 ! A44   A(22,20,23)           109.8229         calculate D2E/DX2 analytically  !
 ! A45   A(12,26,27)           108.5847         calculate D2E/DX2 analytically  !
 ! A46   A(12,26,29)           127.4167         calculate D2E/DX2 analytically  !
 ! A47   A(27,26,29)           123.9986         calculate D2E/DX2 analytically  !
 ! A48   A(29,28,30)           111.167          calculate D2E/DX2 analytically  !
 ! A49   A(29,28,31)           111.6204         calculate D2E/DX2 analytically  !
 ! A50   A(29,28,36)           109.7354         calculate D2E/DX2 analytically  !
 ! A51   A(30,28,31)           109.7391         calculate D2E/DX2 analytically  !
 ! A52   A(30,28,36)           106.7428         calculate D2E/DX2 analytically  !
 ! A53   A(31,28,36)           107.656          calculate D2E/DX2 analytically  !
 ! A54   A(26,29,28)           124.1553         calculate D2E/DX2 analytically  !
 ! A55   A(26,29,32)           120.5706         calculate D2E/DX2 analytically  !
 ! A56   A(28,29,32)           115.2734         calculate D2E/DX2 analytically  !
 ! A57   A(29,32,33)           111.5189         calculate D2E/DX2 analytically  !
 ! A58   A(29,32,34)           111.0453         calculate D2E/DX2 analytically  !
 ! A59   A(29,32,35)           110.9597         calculate D2E/DX2 analytically  !
 ! A60   A(33,32,34)           108.2075         calculate D2E/DX2 analytically  !
 ! A61   A(33,32,35)           108.2099         calculate D2E/DX2 analytically  !
 ! A62   A(34,32,35)           106.7161         calculate D2E/DX2 analytically  !
 ! D1    D(3,1,2,13)          -108.7724         calculate D2E/DX2 analytically  !
 ! D2    D(3,1,2,14)            10.1029         calculate D2E/DX2 analytically  !
 ! D3    D(3,1,2,15)           130.4355         calculate D2E/DX2 analytically  !
 ! D4    D(11,1,2,13)           71.2983         calculate D2E/DX2 analytically  !
 ! D5    D(11,1,2,14)         -169.8265         calculate D2E/DX2 analytically  !
 ! D6    D(11,1,2,15)          -49.4939         calculate D2E/DX2 analytically  !
 ! D7    D(2,1,3,4)             -0.4499         calculate D2E/DX2 analytically  !
 ! D8    D(2,1,3,5)           -179.6701         calculate D2E/DX2 analytically  !
 ! D9    D(11,1,3,4)           179.4796         calculate D2E/DX2 analytically  !
 ! D10   D(11,1,3,5)             0.2594         calculate D2E/DX2 analytically  !
 ! D11   D(2,1,11,9)           179.1062         calculate D2E/DX2 analytically  !
 ! D12   D(2,1,11,12)           -0.9711         calculate D2E/DX2 analytically  !
 ! D13   D(3,1,11,9)            -0.8182         calculate D2E/DX2 analytically  !
 ! D14   D(3,1,11,12)          179.1045         calculate D2E/DX2 analytically  !
 ! D15   D(1,3,5,6)            176.2278         calculate D2E/DX2 analytically  !
 ! D16   D(1,3,5,7)             -1.5811         calculate D2E/DX2 analytically  !
 ! D17   D(4,3,5,6)             -3.0023         calculate D2E/DX2 analytically  !
 ! D18   D(4,3,5,7)            179.1888         calculate D2E/DX2 analytically  !
 ! D19   D(3,5,6,16)            63.0417         calculate D2E/DX2 analytically  !
 ! D20   D(7,5,6,16)          -119.0533         calculate D2E/DX2 analytically  !
 ! D21   D(3,5,7,8)           -176.2685         calculate D2E/DX2 analytically  !
 ! D22   D(3,5,7,9)              3.4635         calculate D2E/DX2 analytically  !
 ! D23   D(6,5,7,8)              5.8934         calculate D2E/DX2 analytically  !
 ! D24   D(6,5,7,9)           -174.3745         calculate D2E/DX2 analytically  !
 ! D25   D(5,6,16,17)          -58.3091         calculate D2E/DX2 analytically  !
 ! D26   D(5,6,16,18)           64.1625         calculate D2E/DX2 analytically  !
 ! D27   D(5,6,16,19)         -178.0271         calculate D2E/DX2 analytically  !
 ! D28   D(5,7,8,20)          -106.4905         calculate D2E/DX2 analytically  !
 ! D29   D(9,7,8,20)            73.7687         calculate D2E/DX2 analytically  !
 ! D30   D(5,7,9,10)           176.0048         calculate D2E/DX2 analytically  !
 ! D31   D(5,7,9,11)            -3.7828         calculate D2E/DX2 analytically  !
 ! D32   D(8,7,9,10)            -4.2593         calculate D2E/DX2 analytically  !
 ! D33   D(8,7,9,11)           175.9531         calculate D2E/DX2 analytically  !
 ! D34   D(7,8,20,21)           61.7024         calculate D2E/DX2 analytically  !
 ! D35   D(7,8,20,22)         -179.9535         calculate D2E/DX2 analytically  !
 ! D36   D(7,8,20,23)          -60.7452         calculate D2E/DX2 analytically  !
 ! D37   D(7,9,11,1)             2.4711         calculate D2E/DX2 analytically  !
 ! D38   D(7,9,11,12)         -177.4571         calculate D2E/DX2 analytically  !
 ! D39   D(10,9,11,1)         -177.3129         calculate D2E/DX2 analytically  !
 ! D40   D(10,9,11,12)           2.759          calculate D2E/DX2 analytically  !
 ! D41   D(1,11,12,24)          39.1454         calculate D2E/DX2 analytically  !
 ! D42   D(1,11,12,25)         156.2659         calculate D2E/DX2 analytically  !
 ! D43   D(1,11,12,26)         -81.6017         calculate D2E/DX2 analytically  !
 ! D44   D(9,11,12,24)        -140.9277         calculate D2E/DX2 analytically  !
 ! D45   D(9,11,12,25)         -23.8072         calculate D2E/DX2 analytically  !
 ! D46   D(9,11,12,26)          98.3252         calculate D2E/DX2 analytically  !
 ! D47   D(11,12,26,27)        -24.0573         calculate D2E/DX2 analytically  !
 ! D48   D(11,12,26,29)        155.9427         calculate D2E/DX2 analytically  !
 ! D49   D(24,12,26,27)       -145.4433         calculate D2E/DX2 analytically  !
 ! D50   D(24,12,26,29)         34.5567         calculate D2E/DX2 analytically  !
 ! D51   D(25,12,26,27)         96.235          calculate D2E/DX2 analytically  !
 ! D52   D(25,12,26,29)        -83.765          calculate D2E/DX2 analytically  !
 ! D53   D(12,26,29,28)          0.1298         calculate D2E/DX2 analytically  !
 ! D54   D(12,26,29,32)       -179.5536         calculate D2E/DX2 analytically  !
 ! D55   D(27,26,29,28)       -179.8702         calculate D2E/DX2 analytically  !
 ! D56   D(27,26,29,32)          0.4464         calculate D2E/DX2 analytically  !
 ! D57   D(30,28,29,26)       -101.4727         calculate D2E/DX2 analytically  !
 ! D58   D(30,28,29,32)         78.2259         calculate D2E/DX2 analytically  !
 ! D59   D(31,28,29,26)         21.4188         calculate D2E/DX2 analytically  !
 ! D60   D(31,28,29,32)       -158.8826         calculate D2E/DX2 analytically  !
 ! D61   D(36,28,29,26)        140.6806         calculate D2E/DX2 analytically  !
 ! D62   D(36,28,29,32)        -39.6208         calculate D2E/DX2 analytically  !
 ! D63   D(26,29,32,33)          1.2626         calculate D2E/DX2 analytically  !
 ! D64   D(26,29,32,34)        122.0321         calculate D2E/DX2 analytically  !
 ! D65   D(26,29,32,35)       -119.4513         calculate D2E/DX2 analytically  !
 ! D66   D(28,29,32,33)       -178.4478         calculate D2E/DX2 analytically  !
 ! D67   D(28,29,32,34)        -57.6782         calculate D2E/DX2 analytically  !
 ! D68   D(28,29,32,35)         60.8384         calculate D2E/DX2 analytically  !
 --------------------------------------------------------------------------------
 Trust Radius=5.00D-02 FncErr=1.00D-07 GrdErr=1.00D-07 EigMax=2.50D+02 EigMin=1.00D-04
 Number of steps in this run=    176 maximum allowed number of steps=    216.
 GradGradGradGradGradGradGradGradGradGradGradGradGradGradGradGradGradGrad

                          Input orientation:                          
 ---------------------------------------------------------------------
 Center     Atomic      Atomic             Coordinates (Angstroms)
 Number     Number       Type             X           Y           Z
 ---------------------------------------------------------------------
      1          6           0       -0.243659   -1.518597   -0.648670
      2          6           0        0.270105   -2.896019   -0.974201
      3          6           0       -1.624034   -1.463127   -0.185058
      4          8           0       -2.354264   -2.499663   -0.068889
      5          6           0       -2.131272   -0.133213    0.124940
      6          8           0       -3.455528    0.020511    0.496468
      7          6           0       -1.352464    0.997165    0.021182
      8          8           0       -1.865057    2.225008    0.402979
      9          6           0        0.011359    0.941859   -0.477810
     10          8           0        0.692757    1.999940   -0.639154
     11          6           0        0.536642   -0.386103   -0.781039
     12          6           0        1.974878   -0.427674   -1.241294
     13          1           0        1.001852   -3.249165   -0.237247
     14          1           0       -0.582231   -3.578395   -0.962130
     15          1           0        0.752871   -2.932167   -1.958437
     16          6           0       -3.758702   -0.660164    1.717869
     17          1           0       -3.539044   -1.724145    1.622159
     18          1           0       -3.190903   -0.220937    2.549244
     19          1           0       -4.826530   -0.501155    1.891827
     20          6           0       -2.164011    3.043442   -0.727261
     21          1           0       -2.928612    2.567100   -1.354055
     22          1           0       -2.558252    3.982130   -0.328928
     23          1           0       -1.262082    3.239156   -1.313382
     24          1           0        2.089980   -1.171953   -2.040484
     25          1           0        2.220363    0.550817   -1.660964
     26          6           0        2.907429   -0.780048   -0.112153
     27          1           0        2.428300   -0.511508    0.831597
     28          6           0        4.799554   -1.703426   -1.505068
     29          6           0        4.133897   -1.334055   -0.204598
     30          1           0        4.727937   -2.783483   -1.694755
     31          1           0        4.373611   -1.152453   -2.345622
     32          6           0        4.935341   -1.632479    1.035695
     33          1           0        4.384765   -1.366044    1.943164
     34          1           0        5.193485   -2.698597    1.091466
     35          1           0        5.882410   -1.078064    1.033952
     36          1           0        5.868033   -1.461466   -1.455970
 ---------------------------------------------------------------------
                    Distance matrix (angstroms):
                    1          2          3          4          5
     1  C    0.000000
     2  C    1.505728   0.000000
     3  C    1.457206   2.502736   0.000000
     4  O    2.398602   2.804283   1.273239   0.000000
     5  C    2.465937   3.822018   1.456729   2.384823   0.000000
     6  O    3.741163   4.954731   2.453575   2.807791   1.383950
     7  C    2.829701   4.333636   2.483812   3.638616   1.376613
     8  O    4.213013   5.716683   3.742489   4.773311   2.389432
     9  C    2.479531   3.878487   2.923042   4.196125   2.471832
    10  O    3.641026   4.925577   4.191248   5.464062   3.620680
    11  C    1.381642   2.531409   2.486704   3.651251   2.828872
    12  C    2.542287   3.011697   3.891011   4.940561   4.337485
    13  H    2.171505   1.096935   3.176151   3.442908   4.433600
    14  H    2.110842   1.091906   2.482651   2.258683   3.930717
    15  H    2.169503   1.096855   3.309476   3.662204   4.526907
    16  C    4.323534   5.336439   2.970301   2.923817   2.337441
    17  H    4.007303   4.756469   2.646021   2.205624   2.598952
    18  H    4.538373   5.616877   3.387407   3.570319   2.647218
    19  H    5.337792   6.318637   3.936346   3.735042   3.243715
    20  C    4.950367   6.423636   4.571075   5.585308   3.289142
    21  H    4.939581   6.342061   4.394451   5.258670   3.180387
    22  H    5.976418   7.464912   5.526688   6.490213   4.162253
    23  H    4.910727   6.332694   4.849288   5.972912   3.767909
    24  H    2.739193   2.724208   4.161885   5.039971   4.856646
    25  H    3.373221   4.019432   4.584066   5.724277   4.753323
    26  C    3.280650   3.489404   4.583238   5.535735   5.085580
    27  H    3.216331   3.688443   4.284925   5.257048   4.629489
    28  C    5.118748   4.713811   6.562214   7.339872   7.291011
    29  C    4.403891   4.238032   5.759411   6.593428   6.387720
    30  H    5.235552   4.517094   6.661086   7.271972   7.575221
    31  H    4.932838   4.664717   6.382500   7.229301   7.032498
    32  C    5.447211   5.234563   6.674154   7.423643   7.281092
    33  H    5.306899   5.270889   6.375297   7.123760   6.876376
    34  H    5.829495   5.342811   7.045173   7.639013   7.820961
    35  H    6.368203   6.231823   7.614523   8.430896   8.120231
    36  H    6.165045   5.798866   7.599098   8.402858   8.261502
                    6          7          8          9         10
     6  O    0.000000
     7  C    2.366987   0.000000
     8  O    2.719953   1.384240   0.000000
     9  C    3.717177   1.453295   2.437868   0.000000
    10  O    4.734559   2.371609   2.771121   1.268807   0.000000
    11  C    4.211269   2.475017   3.740048   1.459916   2.395351
    12  C    5.719266   3.833434   4.948278   2.512755   2.810644
    13  H    5.576501   4.862192   6.212538   4.313193   5.273535
    14  H    4.830681   4.742986   6.098251   4.584715   5.731294
    15  H    5.696972   4.877600   6.247103   4.213096   5.105860
    16  C    1.430753   3.378679   3.693108   4.647671   5.696245
    17  H    2.077975   3.840546   4.459198   4.911498   6.073754
    18  H    2.083798   3.354807   3.513826   4.557372   5.493723
    19  H    2.024552   4.220594   4.291732   5.576975   6.566878
    20  C    3.507655   2.325086   1.427113   3.034982   3.042661
    21  H    3.191737   2.615380   2.082149   3.471691   3.734577
    22  H    4.144973   3.238289   2.025755   3.983505   3.820259
    23  H    4.294932   2.610700   2.082780   2.756339   2.410734
    24  H    6.213756   4.561355   5.757793   3.351241   3.738565
    25  H    6.095202   3.974159   4.873750   2.536231   2.340435
    26  C    6.441936   4.617679   5.663246   3.389084   3.593165
    27  H    5.917330   4.150547   5.109320   3.109409   3.388597
    28  C    8.667439   6.889845   7.968079   5.565932   5.597366
    29  C    7.741171   5.965377   7.001681   4.716964   4.811009
    30  H    8.923730   7.362678   8.541255   6.132311   6.346503
    31  H    8.411227   6.558243   7.608090   5.186917   5.137928
    32  C    8.569121   6.890629   7.843848   5.758778   5.830876
    33  H    8.092321   6.495734   7.370760   5.505834   5.623979
    34  H    9.085868   7.592997   8.633592   6.524567   6.732596
    35  H    9.417688   7.594451   8.445807   6.390208   6.261460
    36  H    9.640387   7.769326   8.766211   6.405731   6.279490
                   11         12         13         14         15
    11  C    0.000000
    12  C    1.510657   0.000000
    13  H    2.951145   3.148921   0.000000
    14  H    3.387536   4.067404   1.772897   0.000000
    15  H    2.813443   2.877513   1.767760   1.786822   0.000000
    16  C    4.976910   6.456365   5.760927   5.078232   6.247521
    17  H    4.917005   6.346932   5.138367   4.342758   5.718437
    18  H    5.001266   6.410633   5.874853   5.514295   6.574444
    19  H    5.993419   7.488725   6.786350   5.968966   7.201671
    20  C    4.365570   5.426166   7.061141   6.812190   6.762537
    21  H    4.588871   5.746790   7.108076   6.589857   6.645339
    22  H    5.372544   6.389683   8.060668   7.840098   7.837495
    23  H    4.081826   4.891702   6.955701   6.860363   6.523907
    24  H    2.148632   1.098137   2.958124   3.754267   2.212001
    25  H    2.118255   1.092626   4.236933   5.039176   3.791201
    26  C    2.494641   1.506247   3.121444   4.553123   3.561250
    27  H    2.488914   2.123558   3.266795   4.656882   4.055977
    28  C    4.520174   3.110613   4.291762   5.724849   4.253351
    29  C    3.764458   2.560786   3.671297   5.277573   4.130527
    30  H    4.914190   3.651684   4.028015   5.419087   3.986576
    31  H    4.213970   2.738387   4.495576   5.688551   4.053030
    32  C    4.919607   3.924357   4.439189   6.182353   5.305382
    33  H    4.815560   4.102300   4.443471   6.164922   5.555707
    34  H    5.526309   4.578022   4.431522   6.192753   5.392172
    35  H    5.687727   4.568212   5.490854   7.213015   6.221275
    36  H    5.480480   4.033790   5.325493   6.806700   5.346056
                   16         17         18         19         20
    16  C    0.000000
    17  H    1.090626   0.000000
    18  H    1.098408   1.800090   0.000000
    19  H    1.093527   1.796119   1.784936   0.000000
    20  C    4.715761   5.490026   4.737738   5.149059   0.000000
    21  H    4.532218   5.257876   4.803924   4.853044   1.097446
    22  H    5.213573   6.109850   5.133214   5.493331   1.093265
    23  H    5.534103   6.199703   5.532854   6.080180   1.093306
    24  H    6.970956   6.738382   7.061003   7.984432   6.131114
    25  H    6.973680   7.008932   6.899512   7.961638   5.129105
    26  C    6.913802   6.742120   6.677222   7.994238   6.380983
    27  H    6.251926   6.140413   5.883042   7.331900   6.013072
    28  C    9.204318   8.905740   9.081995  10.278417   8.463391
    29  C    8.151266   7.897040   7.904137   9.240021   7.687607
    30  H    9.390290   8.970346   9.342709  10.457554   9.076786
    31  H    9.104330   8.870188   9.058108  10.150013   7.935057
    32  C    8.774802   8.495149   8.385651   9.864431   8.681766
    33  H    8.177107   7.938390   7.685659   9.251952   8.334339
    34  H    9.202676   8.802742   8.863514  10.289316   9.508498
    35  H    9.674370   9.461882   9.238820  10.758726   9.210514
    36  H   10.168056   9.901363   9.982233  11.247383   9.237908
                   21         22         23         24         25
    21  H    0.000000
    22  H    1.786159   0.000000
    23  H    1.797397   1.789194   0.000000
    24  H    6.295869   7.148430   5.587744   0.000000
    25  H    5.538189   6.031864   4.413095   1.768890   0.000000
    26  C    6.841425   7.252517   5.914540   2.130792   2.154548
    27  H    6.553732   6.812143   5.682195   2.966395   2.717468
    28  C    8.830897   9.372628   7.823637   2.812637   3.429014
    29  C    8.149803   8.547639   7.159626   2.752154   3.055381
    30  H    9.347061  10.036311   8.502821   3.110526   4.172125
    31  H    8.254740   8.858991   7.218919   2.304009   2.829551
    32  C    9.229796   9.462556   8.225512   4.215572   4.405662
    33  H    8.934582   9.053775   7.981218   4.601430   4.620468
    34  H    9.983816  10.331459   9.094754   4.665993   5.193651
    35  H    9.829746   9.935178   8.671340   4.882981   4.829742
    36  H    9.675778  10.094812   8.541353   3.833948   4.170947
                   26         27         28         29         30
    26  C    0.000000
    27  H    1.091945   0.000000
    28  C    2.524475   3.536032   0.000000
    29  C    1.348960   2.158552   1.506903   0.000000
    30  H    3.135702   4.102762   1.098924   2.162011   0.000000
    31  H    2.697547   3.780181   1.091572   2.162042   1.791489
    32  C    2.481254   2.753814   2.545378   1.506552   2.970385
    33  H    2.598122   2.406983   3.489438   2.162600   3.919356
    34  H    3.218008   3.535129   2.808476   2.159741   2.826122
    35  H    3.202012   3.506110   2.830244   2.157970   3.418641
    36  H    3.321949   4.238767   1.096632   2.142286   1.761977
                   31         32         33         34         35
    31  H    0.000000
    32  C    3.461109   0.000000
    33  H    4.294115   1.094359   0.000000
    34  H    3.856984   1.098342   1.776264   0.000000
    35  H    3.701828   1.097415   1.775540   1.761833   0.000000
    36  H    1.766428   2.666000   3.709892   2.911174   2.519308
                   36
    36  H    0.000000
 Stoichiometry    C14H18O4(1-,2)
 Framework group  C1[X(C14H18O4)]
 Deg. of freedom   102
 Full point group                 C1      NOp   1
 Largest Abelian subgroup         C1      NOp   1
 Largest concise Abelian subgroup C1      NOp   1
                         Standard orientation:                         
 ---------------------------------------------------------------------
 Center     Atomic      Atomic             Coordinates (Angstroms)
 Number     Number       Type             X           Y           Z
 ---------------------------------------------------------------------
      1          6           0        0.044705   -1.146850   -0.596326
      2          6           0        0.957381   -2.285621   -0.967050
      3          6           0       -1.338487   -1.519839   -0.329668
      4          8           0       -1.756654   -2.719721   -0.410656
      5          6           0       -2.229876   -0.422795    0.022440
      6          8           0       -3.576876   -0.675449    0.214989
      7          6           0       -1.793123    0.878185    0.130884
      8          8           0       -2.668976    1.867315    0.543947
      9          6           0       -0.421810    1.251320   -0.172984
     10          8           0       -0.051204    2.464387   -0.141531
     11          6           0        0.485479    0.160113   -0.515691
     12          6           0        1.919555    0.561405   -0.769614
     13          1           0        1.671880   -2.519631   -0.168302
     14          1           0        0.335021   -3.166659   -1.136459
     15          1           0        1.537523   -2.068834   -1.872328
     16          6           0       -3.811076   -1.558899    1.315771
     17          1           0       -3.292377   -2.505201    1.157882
     18          1           0       -3.485793   -1.091152    2.254869
     19          1           0       -4.893070   -1.713492    1.350291
     20          6           0       -3.057619    2.710421   -0.539925
     21          1           0       -3.582914    2.129227   -1.308474
     22          1           0       -3.741335    3.452729   -0.119521
     23          1           0       -2.187366    3.211064   -0.972747
     24          1           0        2.327311   -0.019682   -1.607454
     25          1           0        1.925753    1.614268   -1.061625
     26          6           0        2.781522    0.332883    0.444292
     27          1           0        2.144138    0.344197    1.330834
     28          6           0        4.999807    0.128661   -0.743345
     29          6           0        4.116520    0.142162    0.477465
     30          1           0        5.255827   -0.899017   -1.036542
     31          1           0        4.532863    0.646215   -1.583363
     32          6           0        4.825964   -0.083619    1.787202
     33          1           0        4.125106   -0.088862    2.627673
     34          1           0        5.365056   -1.040554    1.783920
     35          1           0        5.573396    0.699119    1.968823
     36          1           0        5.945005    0.638854   -0.522199
 ---------------------------------------------------------------------
 Rotational constants (GHZ):           0.6719242           0.2385792           0.1965643
 Standard basis: 6-31G(d) (6D, 7F)
 There are   306 symmetry adapted cartesian basis functions of A   symmetry.
 There are   306 symmetry adapted basis functions of A   symmetry.
   306 basis functions,   576 primitive gaussians,   306 cartesian basis functions
    68 alpha electrons       67 beta electrons
       nuclear repulsion energy      1333.8446158831 Hartrees.
 NAtoms=   36 NActive=   36 NUniq=   36 SFac= 1.00D+00 NAtFMM=   60 NAOKFM=F Big=F
 Integral buffers will be    131072 words long.
 Raffenetti 2 integral format.
 Two-electron integral symmetry is turned on.
 One-electron integrals computed using PRISM.
 NBasis=   306 RedAO= T EigKep=  3.13D-04  NBF=   306
 NBsUse=   306 1.00D-06 EigRej= -1.00D+00 NBFU=   306
 ExpMin= 1.61D-01 ExpMax= 5.48D+03 ExpMxC= 8.25D+02 IAcc=3 IRadAn=         7 AccDes= 0.00D+00
 Harris functional with IExCor=  205 and IRadAn=       7 diagonalized for initial guess.
 HarFok:  IExCor=  205 AccDes= 0.00D+00 IRadAn=         7 IDoV= 1 UseB2=F ITyADJ=14
 ICtDFT=  3500011 ScaDFX=  1.000000  1.000000  1.000000  1.000000
 FoFCou: FMM=F IPFlag=           0 FMFlag=      100000 FMFlg1=           0
         NFxFlg=           0 DoJE=T BraDBF=F KetDBF=T FulRan=T
         wScrn=  0.000000 ICntrl=       500 IOpCl=  0 I1Cent=   200000004 NGrid=           0
         NMat0=    1 NMatS0=      1 NMatT0=    0 NMatD0=    1 NMtDS0=    0 NMtDT0=    0
 Petite list used in FoFCou.
 Initial guess <Sx>= 0.0000 <Sy>= 0.0000 <Sz>= 0.5000 <S**2>= 0.7500 S= 0.5000
 Requested convergence on RMS density matrix=1.00D-08 within  32 cycles.
 Requested convergence on MAX density matrix=1.00D-06.
 Requested convergence on             energy=1.00D-06.
 Virtual orbitals will be shifted by   1.000 hartree.
 No special actions if energy rises.
 Integral accuracy reduced to 1.0D-05 until final iterations.
 Failed to achieve initial convergence to 1.0D-08 in 10 cycles.
 Switch to full accuracy anyway.
 Restarting incremental Fock formation.
 >>>>>>>>>> Convergence criterion not met.
 SCF Done:  E(UHF) =  -840.028789156     A.U. after   33 cycles
            NFock= 32  Conv=0.59D-05     -V/T= 2.0021
 <Sx>= 0.0000 <Sy>= 0.0000 <Sz>= 0.5000 <S**2>= 0.8502 S= 0.5489
 <L.S>=  0.00000000000    
 Annihilation of the first spin contaminant:
 S**2 before annihilation     0.8502,   after     0.7534
 LinEq1:  Iter=  0 NonCon=     1 RMS=9.63D-06 Max=1.24D-03 NDo=     1
 AX will form     1 AO Fock derivatives at one time.
 LinEq1:  Iter=  1 NonCon=     1 RMS=4.56D-06 Max=3.08D-04 NDo=     1
 LinEq1:  Iter=  2 NonCon=     1 RMS=2.05D-06 Max=6.30D-05 NDo=     1
 LinEq1:  Iter=  3 NonCon=     1 RMS=4.69D-07 Max=2.90D-05 NDo=     1
 LinEq1:  Iter=  4 NonCon=     1 RMS=2.21D-07 Max=1.16D-05 NDo=     1
 LinEq1:  Iter=  5 NonCon=     1 RMS=7.93D-08 Max=4.55D-06 NDo=     1
 LinEq1:  Iter=  6 NonCon=     1 RMS=4.57D-08 Max=3.18D-06 NDo=     1
 LinEq1:  Iter=  7 NonCon=     1 RMS=2.08D-08 Max=8.74D-07 NDo=     1
 LinEq1:  Iter=  8 NonCon=     1 RMS=8.52D-09 Max=3.86D-07 NDo=     1
 LinEq1:  Iter=  9 NonCon=     1 RMS=4.78D-09 Max=2.31D-07 NDo=     1
 LinEq1:  Iter= 10 NonCon=     1 RMS=1.98D-09 Max=9.57D-08 NDo=     1
 LinEq1:  Iter= 11 NonCon=     0 RMS=8.03D-10 Max=4.03D-08 NDo=     1
 Linear equations converged to 8.980D-09 8.980D-08 after    11 iterations.
 LinEq1:  Iter=  0 NonCon=     1 RMS=1.23D-05 Max=1.59D-03 NDo=     1
 LinEq1:  Iter=  1 NonCon=     1 RMS=6.88D-06 Max=3.66D-04 NDo=     1
 LinEq1:  Iter=  2 NonCon=     1 RMS=2.95D-06 Max=1.42D-04 NDo=     1
 LinEq1:  Iter=  3 NonCon=     1 RMS=1.25D-06 Max=5.03D-05 NDo=     1
 LinEq1:  Iter=  4 NonCon=     1 RMS=6.42D-07 Max=3.50D-05 NDo=     1
 LinEq1:  Iter=  5 NonCon=     1 RMS=3.04D-07 Max=1.93D-05 NDo=     1
 LinEq1:  Iter=  6 NonCon=     1 RMS=1.40D-07 Max=4.96D-06 NDo=     1
 LinEq1:  Iter=  7 NonCon=     1 RMS=5.28D-08 Max=1.72D-06 NDo=     1
 LinEq1:  Iter=  8 NonCon=     1 RMS=2.54D-08 Max=1.27D-06 NDo=     1
 LinEq1:  Iter=  9 NonCon=     1 RMS=1.13D-08 Max=6.30D-07 NDo=     1
 LinEq1:  Iter= 10 NonCon=     1 RMS=5.60D-09 Max=2.74D-07 NDo=     1
 LinEq1:  Iter= 11 NonCon=     0 RMS=2.37D-09 Max=1.43D-07 NDo=     1
 Linear equations converged to 1.794D-08 1.794D-07 after    11 iterations.
     Minimum is close to point  3 DX= -3.97D-02 DF= -4.99D-07 DXR=  8.62D-02 DFR=  7.48D-03 which will be used.
 LinEq1:  Iter=  0 NonCon=     1 RMS=9.04D-06 Max=9.68D-04 NDo=     1
 LinEq1:  Iter=  1 NonCon=     1 RMS=5.03D-06 Max=4.19D-04 NDo=     1
 LinEq1:  Iter=  2 NonCon=     1 RMS=2.27D-06 Max=1.28D-04 NDo=     1
 LinEq1:  Iter=  3 NonCon=     1 RMS=9.55D-07 Max=5.95D-05 NDo=     1
 LinEq1:  Iter=  4 NonCon=     1 RMS=4.51D-07 Max=2.23D-05 NDo=     1
 LinEq1:  Iter=  5 NonCon=     1 RMS=1.98D-07 Max=9.05D-06 NDo=     1
 LinEq1:  Iter=  6 NonCon=     1 RMS=9.18D-08 Max=3.48D-06 NDo=     1
 LinEq1:  Iter=  7 NonCon=     1 RMS=3.55D-08 Max=1.87D-06 NDo=     1
 LinEq1:  Iter=  8 NonCon=     1 RMS=1.40D-08 Max=3.80D-07 NDo=     1
 LinEq1:  Iter=  9 NonCon=     0 RMS=5.63D-09 Max=1.37D-07 NDo=     1
 Linear equations converged to 1.794D-08 1.794D-07 after     9 iterations.
     Accept linear search using points  1 and  2.
 LinEq1:  Iter=  0 NonCon=     1 RMS=2.75D-06 Max=9.38D-05 NDo=     1
 LinEq1:  Iter=  1 NonCon=     1 RMS=1.63D-06 Max=9.91D-05 NDo=     1
 LinEq1:  Iter=  2 NonCon=     1 RMS=6.75D-07 Max=5.15D-05 NDo=     1
 LinEq1:  Iter=  3 NonCon=     1 RMS=2.69D-07 Max=1.33D-05 NDo=     1
 LinEq1:  Iter=  4 NonCon=     1 RMS=1.13D-07 Max=6.47D-06 NDo=     1
 LinEq1:  Iter=  5 NonCon=     1 RMS=6.64D-08 Max=2.87D-06 NDo=     1
 LinEq1:  Iter=  6 NonCon=     1 RMS=2.68D-08 Max=1.01D-06 NDo=     1
 LinEq1:  Iter=  7 NonCon=     1 RMS=1.11D-08 Max=4.95D-07 NDo=     1
 LinEq1:  Iter=  8 NonCon=     1 RMS=5.15D-09 Max=2.32D-07 NDo=     1
 LinEq1:  Iter=  9 NonCon=     1 RMS=2.28D-09 Max=8.73D-08 NDo=     1
 LinEq1:  Iter= 10 NonCon=     0 RMS=1.01D-09 Max=4.67D-08 NDo=     1
 Linear equations converged to 7.743D-09 7.743D-08 after    10 iterations.
     Accept linear search using points  1 and  2.
     Minimum is close to point  2 DX= -1.21D-02 DF= -6.72D-11 DXR=  1.22D-02 DFR=  1.50D-04 which will be used.
 LinEq1:  Iter=  0 NonCon=     1 RMS=2.29D-07 Max=1.06D-05 NDo=     1
 LinEq1:  Iter=  1 NonCon=     1 RMS=1.44D-07 Max=9.96D-06 NDo=     1
 LinEq1:  Iter=  2 NonCon=     1 RMS=6.67D-08 Max=4.32D-06 NDo=     1
 LinEq1:  Iter=  3 NonCon=     1 RMS=2.76D-08 Max=1.10D-06 NDo=     1
 LinEq1:  Iter=  4 NonCon=     1 RMS=1.06D-08 Max=5.35D-07 NDo=     1
 LinEq1:  Iter=  5 NonCon=     1 RMS=4.36D-09 Max=2.18D-07 NDo=     1
 LinEq1:  Iter=  6 NonCon=     1 RMS=2.35D-09 Max=1.29D-07 NDo=     1
 LinEq1:  Iter=  7 NonCon=     1 RMS=1.14D-09 Max=6.80D-08 NDo=     1
 LinEq1:  Iter=  8 NonCon=     1 RMS=5.39D-10 Max=2.43D-08 NDo=     1
 LinEq1:  Iter=  9 NonCon=     1 RMS=2.23D-10 Max=9.47D-09 NDo=     1
 LinEq1:  Iter= 10 NonCon=     0 RMS=1.03D-10 Max=4.24D-09 NDo=     1
 Linear equations converged to 7.258D-10 7.258D-09 after    10 iterations.
 LinEq1:  Iter=  0 NonCon=     1 RMS=3.99D-08 Max=1.64D-06 NDo=     1
 LinEq1:  Iter=  1 NonCon=     1 RMS=2.68D-08 Max=1.62D-06 NDo=     1
 LinEq1:  Iter=  2 NonCon=     1 RMS=1.16D-08 Max=5.54D-07 NDo=     1
 LinEq1:  Iter=  3 NonCon=     1 RMS=5.00D-09 Max=2.91D-07 NDo=     1
 LinEq1:  Iter=  4 NonCon=     1 RMS=2.22D-09 Max=1.23D-07 NDo=     1
 LinEq1:  Iter=  5 NonCon=     1 RMS=1.14D-09 Max=4.76D-08 NDo=     1
 LinEq1:  Iter=  6 NonCon=     1 RMS=4.91D-10 Max=1.91D-08 NDo=     1
 LinEq1:  Iter=  7 NonCon=     1 RMS=2.37D-10 Max=1.18D-08 NDo=     1
 LinEq1:  Iter=  8 NonCon=     1 RMS=1.14D-10 Max=4.54D-09 NDo=     1
 LinEq1:  Iter=  9 NonCon=     1 RMS=4.64D-11 Max=2.35D-09 NDo=     1
 LinEq1:  Iter= 10 NonCon=     0 RMS=2.44D-11 Max=1.15D-09 NDo=     1
 Linear equations converged to 1.353D-10 1.353D-09 after    10 iterations.
 LinEq1:  Iter=  0 NonCon=     1 RMS=8.71D-09 Max=4.09D-07 NDo=     1
 LinEq1:  Iter=  1 NonCon=     1 RMS=4.99D-09 Max=2.41D-07 NDo=     1
 LinEq1:  Iter=  2 NonCon=     1 RMS=2.19D-09 Max=1.07D-07 NDo=     1
 LinEq1:  Iter=  3 NonCon=     1 RMS=1.07D-09 Max=5.34D-08 NDo=     1
 LinEq1:  Iter=  4 NonCon=     1 RMS=4.25D-10 Max=2.48D-08 NDo=     1
 LinEq1:  Iter=  5 NonCon=     1 RMS=1.83D-10 Max=8.51D-09 NDo=     1
 LinEq1:  Iter=  6 NonCon=     1 RMS=9.08D-11 Max=5.64D-09 NDo=     1
 LinEq1:  Iter=  7 NonCon=     1 RMS=4.89D-11 Max=1.98D-09 NDo=     1
 LinEq1:  Iter=  8 NonCon=     1 RMS=1.97D-11 Max=6.48D-10 NDo=     1
 LinEq1:  Iter=  9 NonCon=     1 RMS=8.33D-12 Max=3.45D-10 NDo=     1
 LinEq1:  Iter= 10 NonCon=     0 RMS=4.84D-12 Max=2.31D-10 NDo=     1
 Linear equations converged to 2.434D-11 2.434D-10 after    10 iterations.
 SCF Done:  E(UHF) =  -840.028894952     a.u. after    8 cycles
            Convg  =    0.4692D-06                    83 Fock formations.
              S**2 =  0.9042                  -V/T =  2.0021
 <Sx>= 0.0000 <Sy>= 0.0000 <Sz>= 0.5000 <S**2>= 0.9042 S= 0.5743
 <L.S>=  0.00000000000    
 Annihilation of the first spin contaminant:
 S**2 before annihilation     0.9042,   after     0.7675
 ExpMin= 1.61D-01 ExpMax= 5.48D+03 ExpMxC= 8.25D+02 IAcc=3 IRadAn=         7 AccDes= 0.00D+00
 HarFok:  IExCor=  205 AccDes= 0.00D+00 IRadAn=         7 IDoV=-2 UseB2=F ITyADJ=14
 ICtDFT= 12500011 ScaDFX=  1.000000  1.000000  1.000000  1.000000
 Range of M.O.s used for correlation:    19   306
 NBasis=   306 NAE=    68 NBE=    67 NFC=    18 NFV=     0
 NROrb=    288 NOA=    50 NOB=    49 NVA=   238 NVB=   239
 Disk-based method using ON**2 memory for 50 occupieds at a time.
 Permanent disk used for amplitudes=   386283877 words.
 Estimated scratch disk usage=  2320598026 words.
 Actual    scratch disk usage=  2175894538 words.
 JobTyp=2 Pass  1:  I=  19 to  68 NPSUse=  4 ParTrn=T ParDer=T DoDerP=T.
 Actual    scratch disk usage=  2175894538 words.
 JobTyp=3 Pass  1:  I=  19 to  67 NPSUse=  4 ParTrn=T ParDer=T DoDerP=T.
 Spin components of T(2) and E(2):
     alpha-alpha T2 =       0.1128926481D+00 E2=     -0.3365573800D+00
     alpha-beta  T2 =       0.6016201161D+00 E2=     -0.1841571775D+01
     beta-beta   T2 =       0.1116024670D+00 E2=     -0.3309981919D+00
 (S**2,0)=  0.90415D+00           (S**2,1)=  0.84567D+00
 E(PUHF)=      -0.84004190891D+03        E(PMP2)=      -0.84254872045D+03
 ANorm=    0.1351338311D+01
 E2 =    -0.2509127347D+01 EUMP2 =    -0.84253802229890D+03
 G2DrvN: will do    37 centers at a time, making    1 passes.
 Calling FoFCou, ICntrl=  3107 FMM=F I1Cent=   0 AccDes= 0.00D+00.
 End of G2Drv F.D. properties file   721 does not exist.
 End of G2Drv F.D. properties file   722 does not exist.
 End of G2Drv F.D. properties file   788 does not exist.
          IDoAtm=111111111111111111111111111111111111
          Differentiating once with respect to electric field.
                with respect to dipole field.
          Differentiating once with respect to nuclear coordinates.
          There are   111 degrees of freedom in the 1st order CPHF.  IDoFFX=6 NUNeed=   111.
    108 vectors produced by pass  0 Test12= 3.22D-14 1.00D-09 XBig12= 1.24D+02 5.97D+00.
 AX will form   108 AO Fock derivatives at one time.
    108 vectors produced by pass  1 Test12= 3.22D-14 1.00D-09 XBig12= 1.02D+01 6.76D-01.
    108 vectors produced by pass  2 Test12= 3.22D-14 1.00D-09 XBig12= 8.69D-01 2.43D-01.
    108 vectors produced by pass  3 Test12= 3.22D-14 1.00D-09 XBig12= 1.48D-02 1.40D-02.
    108 vectors produced by pass  4 Test12= 3.22D-14 1.00D-09 XBig12= 2.18D-04 1.46D-03.
    108 vectors produced by pass  5 Test12= 3.22D-14 1.00D-09 XBig12= 4.07D-06 1.92D-04.
    108 vectors produced by pass  6 Test12= 3.22D-14 1.00D-09 XBig12= 6.35D-08 1.28D-05.
     77 vectors produced by pass  7 Test12= 3.22D-14 1.00D-09 XBig12= 7.70D-10 1.70D-06.
     21 vectors produced by pass  8 Test12= 3.22D-14 1.00D-09 XBig12= 9.16D-12 1.48D-07.
      3 vectors produced by pass  9 Test12= 3.22D-14 1.00D-09 XBig12= 1.09D-13 1.71D-08.
      2 vectors produced by pass 10 Test12= 3.22D-14 1.00D-09 XBig12= 1.69D-15 2.68D-09.
 InvSVY:  IOpt=1 It=  1 EMax= 2.97D-14
 Solved reduced A of dimension   859 with   111 vectors.
 End of Minotr F.D. properties file   721 does not exist.
 End of Minotr F.D. properties file   722 does not exist.
 End of Minotr F.D. properties file   788 does not exist.
 MDV=   536870912.
 Form MO integral derivatives with frozen-active canonical formalism.
 Discarding MO integrals.
 Reordered first order wavefunction length =   1550029452
 In DefCFB: NBatch=  1 ICI= 68 ICA=239 LFMax= 30
            Large arrays: LIAPS= 12059193168 LIARS=  1044353520 words.
 In DefCFB: NBatch=  1 ICI= 68 ICA=239 LFMax= 30
            Large arrays: LIAPS= 12059193168 LIARS=  1044353520 words.
 Semi-Direct transformation.
 ModeAB=           4 MOrb=            68 LenV=     534348509
 LASXX=    822068575 LTotXX=   822068575 LenRXX=  1692441205
 LTotAB=   870372630 MaxLAS=   771498216 LenRXY=           0
 NonZer=  2514509780 LenScr=  3773825024 LnRSAI=   771498216
 LnScr1=  1158152192 LExtra=           0 Total=   7395916637
 MaxDsk=          -1 SrtSym=           T ITran=            4
 JobTyp=1 Pass  1:  I=   1 to  68.
 ModeAB=           4 MOrb=            67 LenV=     534348509
 LASXX=    812575062 LTotXX=   812575062 LenRXX=  1332789393
 LTotAB=   520214331 MaxLAS=   760152654 LenRXY=           0
 NonZer=  2145364455 LenScr=  3219128320 LnRSAI=   760152654
 LnScr1=  1140850688 LExtra=           0 Total=   6452921055
 MaxDsk=          -1 SrtSym=           T ITran=            4
 JobTyp=2 Pass  1:  I=   1 to  67.
 Spin components of T(2) and E(2):
     alpha-alpha T2 =       0.1128926481D+00 E2=     -0.3365573800D+00
     alpha-beta  T2 =       0.6016201161D+00 E2=     -0.1841571775D+01
     beta-beta   T2 =       0.1116024670D+00 E2=     -0.3309981919D+00
 ANorm=    0.1911080967D+01
 E2 =    -0.2509127347D+01 EUMP2 =    -0.84253802229890D+03
 (S**2,0)=  0.90415D+00           (S**2,1)=  0.84567D+00
 E(PUHF)=      -0.84004190891D+03        E(PMP2)=      -0.84254872045D+03
          IDoAtm=111111111111111111111111111111111111
          Differentiating once with respect to electric field.
                with respect to dipole field.
          Differentiating once with respect to nuclear coordinates.
          There are     1 degrees of freedom in the 1st order CPHF.  IDoFFX=0 NUNeed=     1.
 LinEq1:  Iter=  0 NonCon=     1 RMS=1.86D-03 Max=6.73D-02 NDo=     1
 LinEq1:  Iter=  1 NonCon=     1 RMS=8.02D-04 Max=4.19D-02 NDo=     1
 LinEq1:  Iter=  2 NonCon=     1 RMS=4.61D-04 Max=2.21D-02 NDo=     1
 LinEq1:  Iter=  3 NonCon=     1 RMS=2.09D-04 Max=8.20D-03 NDo=     1
 LinEq1:  Iter=  4 NonCon=     1 RMS=8.81D-05 Max=3.77D-03 NDo=     1
 LinEq1:  Iter=  5 NonCon=     1 RMS=3.27D-05 Max=1.58D-03 NDo=     1
 LinEq1:  Iter=  6 NonCon=     1 RMS=1.83D-05 Max=1.34D-03 NDo=     1
 LinEq1:  Iter=  7 NonCon=     1 RMS=5.80D-06 Max=1.94D-04 NDo=     1
 LinEq1:  Iter=  8 NonCon=     1 RMS=2.18D-06 Max=1.07D-04 NDo=     1
 LinEq1:  Iter=  9 NonCon=     1 RMS=7.94D-07 Max=2.56D-05 NDo=     1
 LinEq1:  Iter= 10 NonCon=     1 RMS=2.97D-07 Max=1.41D-05 NDo=     1
 LinEq1:  Iter= 11 NonCon=     1 RMS=1.39D-07 Max=4.32D-06 NDo=     1
 LinEq1:  Iter= 12 NonCon=     1 RMS=5.35D-08 Max=3.34D-06 NDo=     1
 LinEq1:  Iter= 13 NonCon=     1 RMS=2.12D-08 Max=1.18D-06 NDo=     1
 LinEq1:  Iter= 14 NonCon=     1 RMS=9.14D-09 Max=4.37D-07 NDo=     1
 LinEq1:  Iter= 15 NonCon=     1 RMS=3.65D-09 Max=1.50D-07 NDo=     1
 LinEq1:  Iter= 16 NonCon=     1 RMS=1.56D-09 Max=6.90D-08 NDo=     1
 LinEq1:  Iter= 17 NonCon=     1 RMS=6.22D-10 Max=3.40D-08 NDo=     1
 LinEq1:  Iter= 18 NonCon=     1 RMS=2.35D-10 Max=1.30D-08 NDo=     1
 LinEq1:  Iter= 19 NonCon=     1 RMS=1.21D-10 Max=7.27D-09 NDo=     1
 LinEq1:  Iter= 20 NonCon=     1 RMS=5.97D-11 Max=2.84D-09 NDo=     1
 LinEq1:  Iter= 21 NonCon=     0 RMS=2.30D-11 Max=9.55D-10 NDo=     1
 Linear equations converged to 1.000D-10 1.000D-09 after    21 iterations.
 End of Minotr F.D. properties file   721 does not exist.
 End of Minotr F.D. properties file   722 does not exist.
 End of Minotr F.D. properties file   788 does not exist.
 Symmetrizing basis deriv contribution to polar:
 IMax=3 JMax=2 DiffMx= 0.00D+00
 G2DrvN: will do    37 centers at a time, making    1 passes.
 Calling FoFCou, ICntrl=  3107 FMM=F I1Cent=   0 AccDes= 0.00D+00.
 End of G2Drv F.D. properties file   721 does not exist.
 End of G2Drv F.D. properties file   722 does not exist.
 End of G2Drv F.D. properties file   788 does not exist.
 Would need an additional  1683921966 words for in-memory AO integral storage.
 DD1Dir will call FoFJK  28 times, MxPair=       486
 NAB=  4556 NAA=  2278 NBB=  2211 NumPrc=  4.
 FoFJK:  IHMeth= 1 ICntrl=     200 DoSepK=F KAlg= 0 I1Cent=           0 FoldK=F
 IRaf= 990000000 NMat=     486 IRICut=     607 DoRegI=T DoRafI=T ISym2E=-1 IDoP0=0 IntGTp=1.
 FoFCou: FMM=F IPFlag=           0 FMFlag=           0 FMFlg1=           0
         NFxFlg=           0 DoJE=F BraDBF=F KetDBF=F FulRan=T
         wScrn=  0.000000 ICntrl=       200 IOpCl=  0 I1Cent=           0 NGrid=           0
         NMat0=  486 NMatS0=      0 NMatT0=  243 NMatD0=  486 NMtDS0=    0 NMtDT0=    0
 Petite list used in FoFCou.
 Raff kept on since  22.10% of shell-pairs survive, threshold=   0.20 IRatSp=22.
 Discarding MO integrals.

 **********************************************************************

            Population analysis using the SCF Density.

 **********************************************************************

 Orbital symmetries:
 Alpha Orbitals:
       Occupied  (A) (A) (A) (A) (A) (A) (A) (A) (A) (A) (A) (A)
                 (A) (A) (A) (A) (A) (A) (A) (A) (A) (A) (A) (A)
                 (A) (A) (A) (A) (A) (A) (A) (A) (A) (A) (A) (A)
                 (A) (A) (A) (A) (A) (A) (A) (A) (A) (A) (A) (A)
                 (A) (A) (A) (A) (A) (A) (A) (A) (A) (A) (A) (A)
                 (A) (A) (A) (A) (A) (A) (A) (A)
       Virtual   (A) (A) (A) (A) (A) (A) (A) (A) (A) (A) (A) (A)
                 (A) (A) (A) (A) (A) (A) (A) (A) (A) (A) (A) (A)
                 (A) (A) (A) (A) (A) (A) (A) (A) (A) (A) (A) (A)
                 (A) (A) (A) (A) (A) (A) (A) (A) (A) (A) (A) (A)
                 (A) (A) (A) (A) (A) (A) (A) (A) (A) (A) (A) (A)
                 (A) (A) (A) (A) (A) (A) (A) (A) (A) (A) (A) (A)
                 (A) (A) (A) (A) (A) (A) (A) (A) (A) (A) (A) (A)
                 (A) (A) (A) (A) (A) (A) (A) (A) (A) (A) (A) (A)
                 (A) (A) (A) (A) (A) (A) (A) (A) (A) (A) (A) (A)
                 (A) (A) (A) (A) (A) (A) (A) (A) (A) (A) (A) (A)
                 (A) (A) (A) (A) (A) (A) (A) (A) (A) (A) (A) (A)
                 (A) (A) (A) (A) (A) (A) (A) (A) (A) (A) (A) (A)
                 (A) (A) (A) (A) (A) (A) (A) (A) (A) (A) (A) (A)
                 (A) (A) (A) (A) (A) (A) (A) (A) (A) (A) (A) (A)
                 (A) (A) (A) (A) (A) (A) (A) (A) (A) (A) (A) (A)
                 (A) (A) (A) (A) (A) (A) (A) (A) (A) (A) (A) (A)
                 (A) (A) (A) (A) (A) (A) (A) (A) (A) (A) (A) (A)
                 (A) (A) (A) (A) (A) (A) (A) (A) (A) (A) (A) (A)
                 (A) (A) (A) (A) (A) (A) (A) (A) (A) (A) (A) (A)
                 (A) (A) (A) (A) (A) (A) (A) (A) (A) (A)
 Beta  Orbitals:
       Occupied  (A) (A) (A) (A) (A) (A) (A) (A) (A) (A) (A) (A)
                 (A) (A) (A) (A) (A) (A) (A) (A) (A) (A) (A) (A)
                 (A) (A) (A) (A) (A) (A) (A) (A) (A) (A) (A) (A)
                 (A) (A) (A) (A) (A) (A) (A) (A) (A) (A) (A) (A)
                 (A) (A) (A) (A) (A) (A) (A) (A) (A) (A) (A) (A)
                 (A) (A) (A) (A) (A) (A) (A)
       Virtual   (A) (A) (A) (A) (A) (A) (A) (A) (A) (A) (A) (A)
                 (A) (A) (A) (A) (A) (A) (A) (A) (A) (A) (A) (A)
                 (A) (A) (A) (A) (A) (A) (A) (A) (A) (A) (A) (A)
                 (A) (A) (A) (A) (A) (A) (A) (A) (A) (A) (A) (A)
                 (A) (A) (A) (A) (A) (A) (A) (A) (A) (A) (A) (A)
                 (A) (A) (A) (A) (A) (A) (A) (A) (A) (A) (A) (A)
                 (A) (A) (A) (A) (A) (A) (A) (A) (A) (A) (A) (A)
                 (A) (A) (A) (A) (A) (A) (A) (A) (A) (A) (A) (A)
                 (A) (A) (A) (A) (A) (A) (A) (A) (A) (A) (A) (A)
                 (A) (A) (A) (A) (A) (A) (A) (A) (A) (A) (A) (A)
                 (A) (A) (A) (A) (A) (A) (A) (A) (A) (A) (A) (A)
                 (A) (A) (A) (A) (A) (A) (A) (A) (A) (A) (A) (A)
                 (A) (A) (A) (A) (A) (A) (A) (A) (A) (A) (A) (A)
                 (A) (A) (A) (A) (A) (A) (A) (A) (A) (A) (A) (A)
                 (A) (A) (A) (A) (A) (A) (A) (A) (A) (A) (A) (A)
                 (A) (A) (A) (A) (A) (A) (A) (A) (A) (A) (A) (A)
                 (A) (A) (A) (A) (A) (A) (A) (A) (A) (A) (A) (A)
                 (A) (A) (A) (A) (A) (A) (A) (A) (A) (A) (A) (A)
                 (A) (A) (A) (A) (A) (A) (A) (A) (A) (A) (A) (A)
                 (A) (A) (A) (A) (A) (A) (A) (A) (A) (A) (A)
 The electronic state is 2-A.
 Alpha  occ. eigenvalues --  -20.43497 -20.43317 -20.38372 -20.36122 -11.14584
 Alpha  occ. eigenvalues --  -11.14257 -11.13949 -11.13583 -11.13459 -11.13332
 Alpha  occ. eigenvalues --  -11.13175 -11.13050 -11.12508 -11.11731 -11.09722
 Alpha  occ. eigenvalues --  -11.09040 -11.08884 -11.08395  -1.25853  -1.23593
 Alpha  occ. eigenvalues --   -1.19783  -1.17838  -0.99832  -0.97250  -0.90881
 Alpha  occ. eigenvalues --   -0.87748  -0.84742  -0.82410  -0.81216  -0.78725
 Alpha  occ. eigenvalues --   -0.75345  -0.73520  -0.63731  -0.63100  -0.60458
 Alpha  occ. eigenvalues --   -0.56960  -0.53816  -0.52768  -0.51935  -0.50246
 Alpha  occ. eigenvalues --   -0.49644  -0.49189  -0.48237  -0.48145  -0.47573
 Alpha  occ. eigenvalues --   -0.44886  -0.44745  -0.44522  -0.43868  -0.42855
 Alpha  occ. eigenvalues --   -0.42398  -0.41715  -0.41107  -0.40769  -0.39053
 Alpha  occ. eigenvalues --   -0.38387  -0.37658  -0.37113  -0.36268  -0.35702
 Alpha  occ. eigenvalues --   -0.31990  -0.31364  -0.26926  -0.26056  -0.24607
 Alpha  occ. eigenvalues --   -0.22357  -0.18013  -0.09691
 Alpha virt. eigenvalues --    0.28247   0.28592   0.32268   0.33052   0.36469
 Alpha virt. eigenvalues --    0.37906   0.38530   0.39179   0.39370   0.39795
 Alpha virt. eigenvalues --    0.41811   0.42117   0.42324   0.43551   0.43998
 Alpha virt. eigenvalues --    0.44438   0.44774   0.45734   0.46639   0.47011
 Alpha virt. eigenvalues --    0.47884   0.48344   0.48688   0.49778   0.52833
 Alpha virt. eigenvalues --    0.53422   0.55951   0.58185   0.60184   0.61057
 Alpha virt. eigenvalues --    0.63494   0.64631   0.68689   0.70943   0.72458
 Alpha virt. eigenvalues --    0.74801   0.75886   0.76867   0.80898   0.82070
 Alpha virt. eigenvalues --    0.83751   0.84296   0.85577   0.87159   0.88246
 Alpha virt. eigenvalues --    0.89025   0.89266   0.89513   0.90492   0.90731
 Alpha virt. eigenvalues --    0.91245   0.92507   0.94333   0.95320   0.95887
 Alpha virt. eigenvalues --    0.98132   0.98785   1.00201   1.00905   1.03991
 Alpha virt. eigenvalues --    1.05492   1.06425   1.07187   1.07847   1.08885
 Alpha virt. eigenvalues --    1.10274   1.11028   1.11445   1.12577   1.13938
 Alpha virt. eigenvalues --    1.15025   1.16120   1.17339   1.17778   1.19410
 Alpha virt. eigenvalues --    1.20313   1.21889   1.23175   1.24219   1.24757
 Alpha virt. eigenvalues --    1.25581   1.25904   1.26591   1.27159   1.27549
 Alpha virt. eigenvalues --    1.27944   1.28902   1.29272   1.30186   1.30511
 Alpha virt. eigenvalues --    1.31559   1.32112   1.32601   1.34027   1.34727
 Alpha virt. eigenvalues --    1.35398   1.36549   1.38560   1.38917   1.40013
 Alpha virt. eigenvalues --    1.42595   1.43806   1.45204   1.49235   1.50372
 Alpha virt. eigenvalues --    1.51235   1.52549   1.54072   1.54860   1.56070
 Alpha virt. eigenvalues --    1.57504   1.60408   1.61139   1.61757   1.63604
 Alpha virt. eigenvalues --    1.65411   1.67441   1.67828   1.70202   1.71759
 Alpha virt. eigenvalues --    1.74645   1.78744   1.80235   1.80749   1.81506
 Alpha virt. eigenvalues --    1.82422   1.83713   1.84746   1.85636   1.88058
 Alpha virt. eigenvalues --    1.89367   1.94037   1.95757   2.01554   2.02632
 Alpha virt. eigenvalues --    2.07045   2.09548   2.13611   2.13693   2.16829
 Alpha virt. eigenvalues --    2.17715   2.18539   2.20157   2.21592   2.23486
 Alpha virt. eigenvalues --    2.24487   2.24942   2.25505   2.26603   2.27823
 Alpha virt. eigenvalues --    2.30373   2.31550   2.33611   2.34380   2.35413
 Alpha virt. eigenvalues --    2.36115   2.38719   2.39477   2.41678   2.41976
 Alpha virt. eigenvalues --    2.44474   2.46225   2.47493   2.48955   2.51506
 Alpha virt. eigenvalues --    2.52365   2.53470   2.53996   2.55968   2.56961
 Alpha virt. eigenvalues --    2.59423   2.60978   2.61924   2.62693   2.64672
 Alpha virt. eigenvalues --    2.66162   2.67019   2.68290   2.68871   2.70193
 Alpha virt. eigenvalues --    2.72201   2.74793   2.75143   2.77900   2.81326
 Alpha virt. eigenvalues --    2.82168   2.83706   2.85148   2.85755   2.86012
 Alpha virt. eigenvalues --    2.88210   2.90280   2.93282   2.94121   2.97378
 Alpha virt. eigenvalues --    2.98847   2.99975   3.03188   3.04292   3.07836
 Alpha virt. eigenvalues --    3.10896   3.11955   3.14217   3.14994   3.16962
 Alpha virt. eigenvalues --    3.23619   3.26687   3.30917   3.32081   3.38370
 Alpha virt. eigenvalues --    3.43051   3.44663   3.47268   3.52013   3.53726
 Alpha virt. eigenvalues --    3.57122   3.57770   3.61967   3.86990   3.93815
 Alpha virt. eigenvalues --    4.39372   4.54260   4.63622   4.65186   4.74485
 Alpha virt. eigenvalues --    4.76820   4.77699   4.79526   4.80099   4.81439
 Alpha virt. eigenvalues --    4.89202   4.91607   4.97819   5.05661   5.10860
 Alpha virt. eigenvalues --    5.22401   5.38252   5.82015
  Beta  occ. eigenvalues --  -20.43496 -20.43319 -20.36544 -20.34504 -11.14564
  Beta  occ. eigenvalues --  -11.14430 -11.13970 -11.13592 -11.13235 -11.13175
  Beta  occ. eigenvalues --  -11.13118 -11.13045 -11.12962 -11.11172 -11.09843
  Beta  occ. eigenvalues --  -11.09034 -11.08605 -11.08394  -1.25699  -1.23403
  Beta  occ. eigenvalues --   -1.15936  -1.14359  -0.99771  -0.96495  -0.90499
  Beta  occ. eigenvalues --   -0.87327  -0.84709  -0.81478  -0.80963  -0.78199
  Beta  occ. eigenvalues --   -0.73984  -0.73155  -0.63222  -0.62482  -0.60357
  Beta  occ. eigenvalues --   -0.56786  -0.53580  -0.52548  -0.51707  -0.50242
  Beta  occ. eigenvalues --   -0.49887  -0.49027  -0.48037  -0.47830  -0.47141
  Beta  occ. eigenvalues --   -0.44972  -0.44328  -0.43698  -0.42939  -0.42186
  Beta  occ. eigenvalues --   -0.41957  -0.41484  -0.40502  -0.38387  -0.37545
  Beta  occ. eigenvalues --   -0.36710  -0.36201  -0.36085  -0.34153  -0.32116
  Beta  occ. eigenvalues --   -0.30553  -0.28810  -0.24655  -0.23325  -0.22281
  Beta  occ. eigenvalues --   -0.17533  -0.15988
  Beta virt. eigenvalues --    0.21664   0.28869   0.31717   0.32885   0.36488
  Beta virt. eigenvalues --    0.37896   0.38186   0.38861   0.39175   0.39459
  Beta virt. eigenvalues --    0.40982   0.41841   0.42194   0.42406   0.43714
  Beta virt. eigenvalues --    0.44309   0.44476   0.44877   0.45918   0.46878
  Beta virt. eigenvalues --    0.47096   0.47961   0.48297   0.48644   0.50485
  Beta virt. eigenvalues --    0.53246   0.53830   0.56728   0.58527   0.60556
  Beta virt. eigenvalues --    0.61649   0.64083   0.65089   0.69098   0.71205
  Beta virt. eigenvalues --    0.72989   0.75261   0.76267   0.77141   0.81011
  Beta virt. eigenvalues --    0.82201   0.83896   0.84764   0.85813   0.87336
  Beta virt. eigenvalues --    0.88080   0.89004   0.89407   0.89730   0.90424
  Beta virt. eigenvalues --    0.90646   0.91380   0.92648   0.94772   0.95607
  Beta virt. eigenvalues --    0.96353   0.98127   0.99034   1.00887   1.01280
  Beta virt. eigenvalues --    1.04165   1.04910   1.06598   1.07548   1.08081
  Beta virt. eigenvalues --    1.09332   1.10430   1.11288   1.11516   1.12466
  Beta virt. eigenvalues --    1.14060   1.15327   1.16042   1.17349   1.18060
  Beta virt. eigenvalues --    1.19932   1.20819   1.22156   1.23339   1.24308
  Beta virt. eigenvalues --    1.24857   1.25649   1.25999   1.26814   1.27375
  Beta virt. eigenvalues --    1.28009   1.28170   1.29167   1.29320   1.30352
  Beta virt. eigenvalues --    1.30678   1.31716   1.32201   1.32739   1.34260
  Beta virt. eigenvalues --    1.35008   1.35717   1.36844   1.38855   1.39778
  Beta virt. eigenvalues --    1.40233   1.42827   1.44173   1.45446   1.51065
  Beta virt. eigenvalues --    1.51619   1.53942   1.54107   1.55261   1.55823
  Beta virt. eigenvalues --    1.57119   1.57996   1.61240   1.61923   1.62437
  Beta virt. eigenvalues --    1.64025   1.65685   1.67947   1.68251   1.70852
  Beta virt. eigenvalues --    1.72144   1.74858   1.78844   1.80043   1.81149
  Beta virt. eigenvalues --    1.82279   1.83314   1.83759   1.84847   1.85806
  Beta virt. eigenvalues --    1.88311   1.89569   1.94179   1.96295   2.01847
  Beta virt. eigenvalues --    2.03033   2.07385   2.09912   2.13920   2.14121
  Beta virt. eigenvalues --    2.17342   2.18102   2.19055   2.20750   2.21909
  Beta virt. eigenvalues --    2.23500   2.25177   2.25321   2.26429   2.27953
  Beta virt. eigenvalues --    2.28283   2.30998   2.32457   2.34455   2.35532
  Beta virt. eigenvalues --    2.36309   2.36640   2.39069   2.39873   2.42150
  Beta virt. eigenvalues --    2.42429   2.44776   2.46702   2.47912   2.49125
  Beta virt. eigenvalues --    2.52358   2.52778   2.53683   2.54197   2.56129
  Beta virt. eigenvalues --    2.58064   2.59558   2.61191   2.62341   2.62934
  Beta virt. eigenvalues --    2.64789   2.66322   2.67258   2.68557   2.69216
  Beta virt. eigenvalues --    2.70403   2.72457   2.75150   2.75748   2.78274
  Beta virt. eigenvalues --    2.81441   2.82331   2.83767   2.85116   2.85860
  Beta virt. eigenvalues --    2.86173   2.88276   2.90441   2.93241   2.94385
  Beta virt. eigenvalues --    2.97592   2.99310   3.00150   3.03631   3.04513
  Beta virt. eigenvalues --    3.09340   3.11446   3.12237   3.14510   3.15274
  Beta virt. eigenvalues --    3.17331   3.23813   3.27138   3.31262   3.32462
  Beta virt. eigenvalues --    3.38472   3.43439   3.44812   3.47460   3.52511
  Beta virt. eigenvalues --    3.54039   3.57304   3.58041   3.62394   3.87081
  Beta virt. eigenvalues --    3.93898   4.39720   4.54895   4.63560   4.65400
  Beta virt. eigenvalues --    4.74806   4.76919   4.77938   4.79631   4.80163
  Beta virt. eigenvalues --    4.81483   4.89493   4.91586   4.97700   5.05990
  Beta virt. eigenvalues --    5.11011   5.22607   5.38725   5.82321
          Condensed to atoms (all electrons):
               1          2          3          4          5          6
     1  C    5.116197   0.313772   0.456126  -0.071919  -0.090617   0.003301
     2  C    0.313772   5.149754  -0.032250  -0.014465   0.004980  -0.000042
     3  C    0.456126  -0.032250   4.446750   0.452384   0.395812  -0.047971
     4  O   -0.071919  -0.014465   0.452384   8.404834  -0.075487  -0.000032
     5  C   -0.090617   0.004980   0.395812  -0.075487   4.966558   0.228275
     6  O    0.003301  -0.000042  -0.047971  -0.000032   0.228275   8.439144
     7  C   -0.011506  -0.000516  -0.039472   0.004411   0.472747  -0.062497
     8  O   -0.000099   0.000001   0.001939  -0.000008  -0.057988  -0.002610
     9  C   -0.033966   0.002499  -0.012089  -0.000120  -0.040811   0.001820
    10  O    0.003658  -0.000043  -0.000120  -0.000000   0.004188  -0.000010
    11  C    0.538116  -0.050439  -0.033558   0.004136  -0.011995  -0.000067
    12  C   -0.046059  -0.015370   0.002135  -0.000038  -0.000508   0.000001
    13  H   -0.037627   0.384631  -0.001158   0.000369  -0.000119   0.000000
    14  H   -0.043243   0.388636  -0.003088   0.018353   0.000869  -0.000006
    15  H   -0.044143   0.387232   0.000911   0.000345   0.000023   0.000000
    16  C   -0.000533  -0.000003  -0.005559  -0.013182  -0.046960   0.216144
    17  H   -0.000172   0.000021  -0.000691   0.014854  -0.007106  -0.033587
    18  H    0.000133  -0.000001   0.000439   0.000356  -0.001139  -0.041086
    19  H    0.000007  -0.000000  -0.000023   0.000273   0.004664  -0.036985
    20  C    0.000038  -0.000000  -0.000121   0.000001  -0.005803   0.000632
    21  H   -0.000019   0.000000  -0.000139   0.000000   0.002868   0.000593
    22  H   -0.000001   0.000000   0.000003  -0.000000  -0.000041  -0.000016
    23  H   -0.000006   0.000000   0.000030  -0.000000  -0.000044   0.000017
    24  H   -0.001679  -0.002112   0.000178  -0.000000  -0.000025  -0.000000
    25  H    0.002132   0.000149  -0.000002   0.000000  -0.000046   0.000000
    26  C   -0.000569   0.000079  -0.000108  -0.000000   0.000030   0.000000
    27  H    0.001538  -0.000002  -0.000038   0.000000  -0.000033   0.000000
    28  C   -0.000018   0.000010  -0.000000  -0.000000  -0.000000   0.000000
    29  C    0.000013  -0.000339  -0.000001  -0.000000  -0.000000   0.000000
    30  H   -0.000003   0.000028   0.000000   0.000000  -0.000000   0.000000
    31  H    0.000003  -0.000004  -0.000000   0.000000   0.000000  -0.000000
    32  C   -0.000010   0.000000  -0.000000   0.000000   0.000000  -0.000000
    33  H   -0.000002   0.000000  -0.000000   0.000000   0.000000  -0.000000
    34  H    0.000000   0.000002   0.000000  -0.000000  -0.000000   0.000000
    35  H    0.000000  -0.000000  -0.000000   0.000000   0.000000  -0.000000
    36  H    0.000000   0.000000   0.000000   0.000000  -0.000000  -0.000000
               7          8          9         10         11         12
     1  C   -0.011506  -0.000099  -0.033966   0.003658   0.538116  -0.046059
     2  C   -0.000516   0.000001   0.002499  -0.000043  -0.050439  -0.015370
     3  C   -0.039472   0.001939  -0.012089  -0.000120  -0.033558   0.002135
     4  O    0.004411  -0.000008  -0.000120  -0.000000   0.004136  -0.000038
     5  C    0.472747  -0.057988  -0.040811   0.004188  -0.011995  -0.000508
     6  O   -0.062497  -0.002610   0.001820  -0.000010  -0.000067   0.000001
     7  C    4.987061   0.225155   0.393620  -0.077496  -0.092344   0.004785
     8  O    0.225155   8.433095  -0.050124  -0.000734   0.003531  -0.000046
     9  C    0.393620  -0.050124   4.446347   0.468576   0.437413  -0.037016
    10  O   -0.077496  -0.000734   0.468576   8.349705  -0.080445  -0.006737
    11  C   -0.092344   0.003531   0.437413  -0.080445   5.225321   0.322199
    12  C    0.004785  -0.000046  -0.037016  -0.006737   0.322199   5.108115
    13  H    0.000022  -0.000000  -0.000025   0.000000  -0.001800  -0.000057
    14  H   -0.000032   0.000000  -0.000031   0.000000   0.002356   0.000135
    15  H   -0.000017  -0.000000   0.000089  -0.000000  -0.001413  -0.002303
    16  C   -0.002921   0.000312  -0.000040   0.000001   0.000035  -0.000000
    17  H   -0.000378   0.000006   0.000020  -0.000000  -0.000012   0.000000
    18  H    0.003098   0.000145  -0.000077  -0.000000  -0.000017   0.000000
    19  H   -0.000012  -0.000011   0.000003  -0.000000  -0.000001   0.000000
    20  C   -0.048506   0.218711  -0.005046  -0.005697  -0.000406   0.000003
    21  H   -0.002184  -0.039504   0.000461   0.000235   0.000118  -0.000001
    22  H    0.005245  -0.036458  -0.000081   0.000122   0.000007  -0.000000
    23  H   -0.005977  -0.035056   0.000640   0.009454  -0.000287   0.000006
    24  H    0.000066   0.000000   0.002218   0.000337  -0.047557   0.402903
    25  H    0.000700  -0.000004  -0.003882   0.014220  -0.042351   0.392147
    26  C   -0.000294   0.000001  -0.004862   0.000786  -0.049600   0.336074
    27  H   -0.000004   0.000000   0.000966   0.000243  -0.000318  -0.048956
    28  C    0.000000  -0.000000  -0.000004   0.000001   0.000267  -0.007411
    29  C    0.000000  -0.000000   0.000176   0.000027   0.001765  -0.048537
    30  H    0.000000  -0.000000   0.000000   0.000000   0.000012   0.000525
    31  H   -0.000000   0.000000  -0.000002  -0.000001   0.000031  -0.000219
    32  C   -0.000000   0.000000  -0.000002   0.000000  -0.000125   0.003291
    33  H   -0.000000   0.000000  -0.000001   0.000000  -0.000015   0.000076
    34  H    0.000000  -0.000000   0.000000   0.000000   0.000006  -0.000059
    35  H    0.000000  -0.000000  -0.000000  -0.000000  -0.000002  -0.000089
    36  H   -0.000000   0.000000   0.000000  -0.000000  -0.000005   0.000156
              13         14         15         16         17         18
     1  C   -0.037627  -0.043243  -0.044143  -0.000533  -0.000172   0.000133
     2  C    0.384631   0.388636   0.387232  -0.000003   0.000021  -0.000001
     3  C   -0.001158  -0.003088   0.000911  -0.005559  -0.000691   0.000439
     4  O    0.000369   0.018353   0.000345  -0.013182   0.014854   0.000356
     5  C   -0.000119   0.000869   0.000023  -0.046960  -0.007106  -0.001139
     6  O    0.000000  -0.000006   0.000000   0.216144  -0.033587  -0.041086
     7  C    0.000022  -0.000032  -0.000017  -0.002921  -0.000378   0.003098
     8  O   -0.000000   0.000000  -0.000000   0.000312   0.000006   0.000145
     9  C   -0.000025  -0.000031   0.000089  -0.000040   0.000020  -0.000077
    10  O    0.000000   0.000000  -0.000000   0.000001  -0.000000  -0.000000
    11  C   -0.001800   0.002356  -0.001413   0.000035  -0.000012  -0.000017
    12  C   -0.000057   0.000135  -0.002303  -0.000000   0.000000   0.000000
    13  H    0.568197  -0.024446  -0.036029  -0.000000   0.000001   0.000000
    14  H   -0.024446   0.472372  -0.023270   0.000006  -0.000006  -0.000000
    15  H   -0.036029  -0.023270   0.584357   0.000000  -0.000000  -0.000000
    16  C   -0.000000   0.000006   0.000000   4.860680   0.388740   0.378679
    17  H    0.000001  -0.000006  -0.000000   0.388740   0.496213  -0.038607
    18  H    0.000000  -0.000000  -0.000000   0.378679  -0.038607   0.607272
    19  H    0.000000  -0.000000   0.000000   0.390070  -0.027515  -0.035387
    20  C    0.000000  -0.000000  -0.000000  -0.000140   0.000000   0.000025
    21  H   -0.000000  -0.000000   0.000000   0.000019   0.000001  -0.000003
    22  H   -0.000000   0.000000   0.000000   0.000003  -0.000000  -0.000001
    23  H   -0.000000   0.000000   0.000000   0.000000   0.000000   0.000000
    24  H   -0.000849   0.000016   0.002033   0.000000   0.000000  -0.000000
    25  H   -0.000006   0.000004   0.000043  -0.000000  -0.000000  -0.000000
    26  C    0.002821   0.000033  -0.000468   0.000000  -0.000000   0.000000
    27  H   -0.000069   0.000003   0.000016   0.000000   0.000000  -0.000000
    28  C   -0.000020   0.000000   0.000034  -0.000000  -0.000000   0.000000
    29  C    0.000639   0.000007  -0.000048   0.000000   0.000000  -0.000000
    30  H   -0.000034  -0.000001   0.000043  -0.000000   0.000000  -0.000000
    31  H   -0.000001   0.000000  -0.000008   0.000000   0.000000  -0.000000
    32  C    0.000004  -0.000000  -0.000003  -0.000000  -0.000000   0.000000
    33  H    0.000004  -0.000000  -0.000000   0.000000  -0.000000   0.000000
    34  H   -0.000015  -0.000000   0.000001  -0.000000   0.000000  -0.000000
    35  H    0.000001   0.000000  -0.000000   0.000000  -0.000000  -0.000000
    36  H    0.000001   0.000000  -0.000000   0.000000  -0.000000  -0.000000
              19         20         21         22         23         24
     1  C    0.000007   0.000038  -0.000019  -0.000001  -0.000006  -0.001679
     2  C   -0.000000  -0.000000   0.000000   0.000000   0.000000  -0.002112
     3  C   -0.000023  -0.000121  -0.000139   0.000003   0.000030   0.000178
     4  O    0.000273   0.000001   0.000000  -0.000000  -0.000000  -0.000000
     5  C    0.004664  -0.005803   0.002868  -0.000041  -0.000044  -0.000025
     6  O   -0.036985   0.000632   0.000593  -0.000016   0.000017  -0.000000
     7  C   -0.000012  -0.048506  -0.002184   0.005245  -0.005977   0.000066
     8  O   -0.000011   0.218711  -0.039504  -0.036458  -0.035056   0.000000
     9  C    0.000003  -0.005046   0.000461  -0.000081   0.000640   0.002218
    10  O   -0.000000  -0.005697   0.000235   0.000122   0.009454   0.000337
    11  C   -0.000001  -0.000406   0.000118   0.000007  -0.000287  -0.047557
    12  C    0.000000   0.000003  -0.000001  -0.000000   0.000006   0.402903
    13  H    0.000000   0.000000  -0.000000  -0.000000  -0.000000  -0.000849
    14  H   -0.000000  -0.000000  -0.000000   0.000000   0.000000   0.000016
    15  H    0.000000  -0.000000   0.000000   0.000000   0.000000   0.002033
    16  C    0.390070  -0.000140   0.000019   0.000003   0.000000   0.000000
    17  H   -0.027515   0.000000   0.000001  -0.000000   0.000000   0.000000
    18  H   -0.035387   0.000025  -0.000003  -0.000001   0.000000  -0.000000
    19  H    0.576219   0.000003  -0.000003  -0.000000  -0.000000  -0.000000
    20  C    0.000003   4.836793   0.383227   0.390836   0.390161   0.000000
    21  H   -0.000003   0.383227   0.590164  -0.033389  -0.040229   0.000000
    22  H   -0.000000   0.390836  -0.033389   0.571477  -0.030041   0.000000
    23  H   -0.000000   0.390161  -0.040229  -0.030041   0.528923  -0.000000
    24  H   -0.000000   0.000000   0.000000   0.000000  -0.000000   0.572316
    25  H   -0.000000  -0.000000  -0.000000   0.000000   0.000006  -0.025754
    26  C    0.000000  -0.000000  -0.000000   0.000000  -0.000000  -0.052999
    27  H   -0.000000   0.000000  -0.000000  -0.000000   0.000000   0.004089
    28  C   -0.000000   0.000000  -0.000000  -0.000000   0.000000  -0.001358
    29  C   -0.000000  -0.000000   0.000000  -0.000000   0.000000  -0.001981
    30  H   -0.000000   0.000000  -0.000000   0.000000   0.000000   0.000551
    31  H   -0.000000  -0.000000   0.000000   0.000000  -0.000000  -0.001008
    32  C    0.000000  -0.000000   0.000000   0.000000  -0.000000   0.000029
    33  H    0.000000  -0.000000   0.000000   0.000000  -0.000000   0.000005
    34  H   -0.000000   0.000000  -0.000000   0.000000   0.000000   0.000020
    35  H   -0.000000  -0.000000   0.000000  -0.000000  -0.000000  -0.000010
    36  H   -0.000000  -0.000000   0.000000   0.000000  -0.000000  -0.000021
              25         26         27         28         29         30
     1  C    0.002132  -0.000569   0.001538  -0.000018   0.000013  -0.000003
     2  C    0.000149   0.000079  -0.000002   0.000010  -0.000339   0.000028
     3  C   -0.000002  -0.000108  -0.000038  -0.000000  -0.000001   0.000000
     4  O    0.000000  -0.000000   0.000000  -0.000000  -0.000000   0.000000
     5  C   -0.000046   0.000030  -0.000033  -0.000000  -0.000000  -0.000000
     6  O    0.000000   0.000000   0.000000   0.000000   0.000000   0.000000
     7  C    0.000700  -0.000294  -0.000004   0.000000   0.000000   0.000000
     8  O   -0.000004   0.000001   0.000000  -0.000000  -0.000000  -0.000000
[...]
 XXXZ=            -41.1072 YYYX=            -95.1140 YYYZ=            -36.1059 ZZZX=            -26.6203
 ZZZY=             -3.9071 XXYY=          -1171.1084 XXZZ=           -961.2802 YYZZ=           -392.9111
 XXYZ=            -55.9638 YYXZ=             -3.7715 ZZXY=             10.2391
 N-N= 1.344286926928D+03 E-N=-4.676308598780D+03  KE= 8.383040099093D+02
                          Isotropic Fermi Contact Couplings
        Atom                 a.u.       MegaHertz       Gauss      10(-4) cm-1
     1  C(13)             -0.05029     -56.53117     -20.17173     -18.85677
     2  C(13)              0.00791       8.88692       3.17107       2.96436
     3  C(13)              0.06878      77.32618      27.59191      25.79324
     4  O(17)             -0.00492       2.98224       1.06414       0.99477
     5  C(13)             -0.05550     -62.39610     -22.26448     -20.81310
     6  O(17)             -0.00485       2.93852       1.04854       0.98019
     7  C(13)              0.05750      64.64406      23.06661      21.56294
     8  O(17)              0.00591      -3.58283      -1.27844      -1.19510
     9  C(13)             -0.01700     -19.10901      -6.81857      -6.37408
    10  O(17)              0.02029     -12.29956      -4.38879      -4.10269
    11  C(13)              0.06642      74.66473      26.64223      24.90547
    12  C(13)             -0.02453     -27.57795      -9.84050      -9.19901
    13  H(1)              -0.00219      -9.78897      -3.49295      -3.26525
    14  H(1)              -0.00081      -3.61098      -1.28849      -1.20449
    15  H(1)              -0.00249     -11.12588      -3.96999      -3.71119
    16  C(13)             -0.00850      -9.55303      -3.40876      -3.18655
    17  H(1)              -0.00002      -0.10243      -0.03655      -0.03417
    18  H(1)               0.00006       0.25254       0.09011       0.08424
    19  H(1)              -0.00009      -0.39657      -0.14151      -0.13228
    20  C(13)              0.01039      11.68102       4.16808       3.89637
    21  H(1)              -0.00045      -1.99162      -0.71066      -0.66433
    22  H(1)              -0.00009      -0.41261      -0.14723      -0.13763
    23  H(1)              -0.00022      -0.98843      -0.35270      -0.32970
    24  H(1)               0.00219       9.80570       3.49892       3.27083
    25  H(1)               0.00595      26.57351       9.48209       8.86397
    26  C(13)              0.05175      58.17227      20.75731      19.40418
    27  H(1)              -0.00492     -22.00233      -7.85098      -7.33919
    28  C(13)              0.00883       9.93189       3.54394       3.31292
    29  C(13)             -0.03711     -41.72425     -14.88825     -13.91771
    30  H(1)              -0.00291     -12.99853      -4.63820      -4.33584
    31  H(1)              -0.00041      -1.81207      -0.64659      -0.60444
    32  C(13)              0.00958      10.76774       3.84220       3.59173
    33  H(1)              -0.00042      -1.85989      -0.66366      -0.62039
    34  H(1)              -0.00281     -12.54576      -4.47664      -4.18482
    35  H(1)              -0.00294     -13.14486      -4.69041      -4.38465
    36  H(1)              -0.00304     -13.60042      -4.85297      -4.53661
 --------------------------------------------------------
       Center         ----  Spin Dipole Couplings  ----
                      3XX-RR        3YY-RR        3ZZ-RR
 --------------------------------------------------------
     1   Atom        0.040123      0.059185     -0.099309
     2   Atom        0.002366      0.001820     -0.004185
     3   Atom       -0.131938     -0.146845      0.278783
     4   Atom       -0.130753     -0.202839      0.333592
     5   Atom        0.062552      0.071829     -0.134382
     6   Atom        0.027947     -0.004722     -0.023225
     7   Atom       -0.112891     -0.164683      0.277574
     8   Atom       -0.033458     -0.029605      0.063063
     9   Atom       -0.045382     -0.022441      0.067823
    10   Atom       -0.318322     -0.395162      0.713484
    11   Atom       -0.109396     -0.173040      0.282436
    12   Atom        0.000051     -0.000782      0.000730
    13   Atom        0.000848      0.001562     -0.002411
    14   Atom        0.002161      0.001181     -0.003341
    15   Atom       -0.000281      0.000524     -0.000243
    16   Atom        0.002787     -0.000585     -0.002202
    17   Atom        0.002362     -0.002887      0.000526
    18   Atom        0.000545     -0.000157     -0.000389
    19   Atom        0.000908     -0.000396     -0.000512
    20   Atom       -0.002611      0.006651     -0.004040
    21   Atom        0.003035     -0.002107     -0.000928
    22   Atom        0.001513      0.000787     -0.002300
    23   Atom        0.002487      0.002350     -0.004837
    24   Atom        0.003912     -0.003050     -0.000862
    25   Atom        0.004904     -0.003862     -0.001043
    26   Atom       -0.020786      0.049262     -0.028477
    27   Atom       -0.002095      0.001567      0.000528
    28   Atom        0.002555      0.000086     -0.002641
    29   Atom        0.025316     -0.060739      0.035423
    30   Atom        0.001021     -0.000765     -0.000256
    31   Atom        0.002628     -0.000643     -0.001986
    32   Atom        0.001884     -0.002390      0.000507
    33   Atom        0.001887     -0.001189     -0.000698
    34   Atom        0.000977      0.000935     -0.001912
    35   Atom        0.001682     -0.000322     -0.001360
    36   Atom        0.001464     -0.000307     -0.001156
 --------------------------------------------------------
                        XY            XZ            YZ
 --------------------------------------------------------
     1   Atom        0.005126     -0.044803      0.008366
     2   Atom       -0.005312     -0.002796      0.002303
     3   Atom       -0.011255      0.122797     -0.059241
     4   Atom       -0.031769      0.131430     -0.063203
     5   Atom        0.008719     -0.059271      0.022493
     6   Atom        0.002054     -0.018861     -0.019196
     7   Atom       -0.008864      0.137337     -0.030936
     8   Atom        0.028940      0.030481      0.029856
     9   Atom        0.002146      0.029763     -0.022103
    10   Atom       -0.042992      0.335442     -0.151860
    11   Atom       -0.006803      0.143186     -0.022466
    12   Atom       -0.003608     -0.002875      0.002009
    13   Atom       -0.002120      0.000215     -0.000093
    14   Atom       -0.003050     -0.001548      0.000586
    15   Atom       -0.001225     -0.002072      0.001268
    16   Atom       -0.001505     -0.000182      0.002972
    17   Atom        0.001880     -0.004491     -0.000534
    18   Atom        0.000283     -0.002007     -0.000169
    19   Atom        0.000299     -0.000973     -0.000064
    20   Atom       -0.006224      0.002006     -0.009233
    21   Atom       -0.003163      0.003629     -0.001213
    22   Atom       -0.003258     -0.000343      0.000178
    23   Atom       -0.004083      0.001504     -0.002703
    24   Atom       -0.001385     -0.003532      0.001044
    25   Atom        0.003123     -0.004445     -0.000325
    26   Atom        0.089915     -0.038358     -0.071349
    27   Atom        0.000323     -0.003863      0.008156
    28   Atom       -0.002415     -0.001316      0.000169
    29   Atom       -0.096217      0.051332      0.072249
    30   Atom       -0.000005      0.000773     -0.001496
    31   Atom       -0.001587     -0.000229     -0.000385
    32   Atom        0.000517      0.003533     -0.000846
    33   Atom       -0.000206      0.002033     -0.000674
    34   Atom       -0.000531      0.000087     -0.000604
    35   Atom       -0.000202     -0.000777     -0.000748
    36   Atom        0.000810      0.000990     -0.000710
 --------------------------------------------------------


 ---------------------------------------------------------------------------------
              Anisotropic Spin Dipole Couplings in Principal Axis System
 ---------------------------------------------------------------------------------

       Atom             a.u.   MegaHertz   Gauss  10(-4) cm-1        Axes

              Baa    -0.1130   -15.162    -5.410    -5.057  0.2821 -0.0549  0.9578
     1 C(13)  Bbb     0.0524     7.030     2.508     2.345  0.9005 -0.3293 -0.2841
              Bcc     0.0606     8.132     2.902     2.713  0.3310  0.9426 -0.0434
 
              Baa    -0.0052    -0.704    -0.251    -0.235  0.2808 -0.1000  0.9546
     2 C(13)  Bbb    -0.0032    -0.429    -0.153    -0.143  0.6553  0.7466 -0.1146
              Bcc     0.0084     1.133     0.404     0.378  0.7012 -0.6577 -0.2751
 
              Baa    -0.1677   -22.500    -8.029    -7.505  0.8917 -0.3466 -0.2912
     3 C(13)  Bbb    -0.1528   -20.498    -7.314    -6.837  0.3686  0.9293  0.0227
              Bcc     0.3204    42.998    15.343    14.343  0.2628 -0.1276  0.9564
 
              Baa    -0.2153    15.581     5.560     5.197  0.2987  0.9536  0.0383
     4 O(17)  Bbb    -0.1612    11.661     4.161     3.890  0.9194 -0.2768 -0.2796
              Bcc     0.3765   -27.242    -9.721    -9.087  0.2560 -0.1187  0.9594
 
              Baa    -0.1534   -20.585    -7.345    -6.867  0.2672 -0.1060  0.9578
     5 C(13)  Bbb     0.0734     9.848     3.514     3.285 -0.3477  0.9164  0.1984
              Bcc     0.0800    10.737     3.831     3.581  0.8988  0.3860 -0.2080
 
              Baa    -0.0388     2.805     1.001     0.935  0.2271  0.4680  0.8541
     6 O(17)  Bbb     0.0029    -0.206    -0.074    -0.069 -0.3526  0.8570 -0.3758
              Bcc     0.0359    -2.598    -0.927    -0.867  0.9078  0.2158 -0.3596
 
              Baa    -0.1669   -22.393    -7.991    -7.470 -0.0599  0.9943  0.0877
     7 C(13)  Bbb    -0.1563   -20.972    -7.483    -6.995  0.9517  0.0834 -0.2953
              Bcc     0.3232    43.365    15.474    14.465  0.3010 -0.0658  0.9514
 
              Baa    -0.0606     4.383     1.564     1.462  0.7401 -0.6722 -0.0201
     8 O(17)  Bbb    -0.0235     1.700     0.607     0.567  0.5967  0.6702 -0.4413
              Bcc     0.0841    -6.083    -2.171    -2.029  0.3101  0.3146  0.8971
 
              Baa    -0.0546    -7.330    -2.615    -2.445  0.9301 -0.2481 -0.2709
     9 C(13)  Bbb    -0.0249    -3.337    -1.191    -1.113  0.2913  0.9474  0.1324
              Bcc     0.0795    10.667     3.806     3.558  0.2238 -0.2020  0.9535
 
              Baa    -0.4189    30.310    10.815    10.110  0.8177 -0.4867 -0.3075
    10 O(17)  Bbb    -0.4143    29.982    10.698    10.001  0.5020  0.8642 -0.0329
              Bcc     0.8332   -60.292   -21.514   -20.111  0.2818 -0.1274  0.9510
 
              Baa    -0.1741   -23.369    -8.339    -7.795 -0.0122  0.9985  0.0530
    11 C(13)  Bbb    -0.1561   -20.951    -7.476    -6.988  0.9507  0.0280 -0.3089
              Bcc     0.3303    44.320    15.814    14.784  0.3100 -0.0466  0.9496
 
              Baa    -0.0041    -0.544    -0.194    -0.181  0.7048  0.6973  0.1308
    12 C(13)  Bbb    -0.0017    -0.223    -0.079    -0.074  0.3316 -0.4867  0.8082
              Bcc     0.0057     0.766     0.273     0.256  0.6272 -0.5262 -0.5742
 
              Baa    -0.0024    -1.294    -0.462    -0.432 -0.0772 -0.0179  0.9969
    13 H(1)   Bbb    -0.0009    -0.500    -0.178    -0.167  0.7594  0.6468  0.0705
              Bcc     0.0034     1.794     0.640     0.599 -0.6460  0.7625 -0.0363
 
              Baa    -0.0038    -2.006    -0.716    -0.669  0.2815  0.0602  0.9577
    14 H(1)   Bbb    -0.0013    -0.689    -0.246    -0.230  0.5879  0.7779 -0.2217
              Bcc     0.0051     2.695     0.962     0.899  0.7584 -0.6254 -0.1836
 
              Baa    -0.0023    -1.245    -0.444    -0.415  0.7071 -0.0107  0.7071
    15 H(1)   Bbb    -0.0007    -0.379    -0.135    -0.126  0.4117  0.8192 -0.3992
              Bcc     0.0030     1.624     0.580     0.542 -0.5750  0.5734  0.5837
 
              Baa    -0.0046    -0.611    -0.218    -0.204 -0.1082 -0.6216  0.7759
    16 C(13)  Bbb     0.0009     0.114     0.041     0.038  0.5366  0.6205  0.5719
              Bcc     0.0037     0.497     0.177     0.166  0.8369 -0.4782 -0.2664
 
              Baa    -0.0040    -2.108    -0.752    -0.703 -0.5332  0.7168 -0.4493
    17 H(1)   Bbb    -0.0024    -1.294    -0.462    -0.432  0.3502  0.6705  0.6541
              Bcc     0.0064     3.403     1.214     1.135  0.7701  0.1913 -0.6085
 
              Baa    -0.0020    -1.058    -0.378    -0.353  0.6232 -0.0242  0.7817
    18 H(1)   Bbb    -0.0002    -0.107    -0.038    -0.036 -0.0930  0.9901  0.1048
              Bcc     0.0022     1.166     0.416     0.389  0.7765  0.1380 -0.6148
 
              Baa    -0.0010    -0.543    -0.194    -0.181  0.4633 -0.1327  0.8762
    19 H(1)   Bbb    -0.0004    -0.231    -0.082    -0.077 -0.0797  0.9785  0.1904
              Bcc     0.0014     0.774     0.276     0.258  0.8826  0.1580 -0.4427
 
              Baa    -0.0097    -1.305    -0.466    -0.435  0.2530  0.5464  0.7984
    20 C(13)  Bbb    -0.0047    -0.626    -0.224    -0.209  0.9006  0.1685 -0.4006
              Bcc     0.0144     1.931     0.689     0.644 -0.3534  0.8204 -0.4495
 
              Baa    -0.0038    -2.028    -0.724    -0.676  0.5449  0.7519 -0.3710
    21 H(1)   Bbb    -0.0027    -1.435    -0.512    -0.479 -0.2087  0.5502  0.8086
              Bcc     0.0065     3.463     1.236     1.155  0.8121 -0.3632  0.4567
 
              Baa    -0.0024    -1.259    -0.449    -0.420  0.2926  0.2508  0.9228
    22 H(1)   Bbb    -0.0021    -1.114    -0.398    -0.372  0.5999  0.7033 -0.3814
              Bcc     0.0044     2.373     0.847     0.792  0.7447 -0.6651 -0.0553
 
              Baa    -0.0057    -3.064    -1.093    -1.022 -0.0216  0.3069  0.9515
    23 H(1)   Bbb    -0.0015    -0.797    -0.284    -0.266  0.7371  0.6478 -0.1923
              Bcc     0.0072     3.861     1.378     1.288 -0.6754  0.6972 -0.2402
 
              Baa    -0.0035    -1.851    -0.660    -0.617 -0.0108  0.9231 -0.3845
    24 H(1)   Bbb    -0.0026    -1.409    -0.503    -0.470  0.5010  0.3377  0.7969
              Bcc     0.0061     3.259     1.163     1.087  0.8654 -0.1840 -0.4661
 
              Baa    -0.0053    -2.820    -1.006    -0.941 -0.4168  0.8289 -0.3731
    25 H(1)   Bbb    -0.0027    -1.447    -0.516    -0.483  0.2710  0.5051  0.8194
              Bcc     0.0080     4.268     1.523     1.424  0.8677  0.2404 -0.4352
 
              Baa    -0.0854   -11.455    -4.088    -3.821  0.6909 -0.6398 -0.3366
    26 C(13)  Bbb    -0.0623    -8.357    -2.982    -2.787  0.5220  0.1194  0.8445
              Bcc     0.1476    19.812     7.069     6.609  0.5002  0.7592 -0.4165
 
              Baa    -0.0086    -4.597    -1.640    -1.533  0.4395 -0.5700  0.6942
    27 H(1)   Bbb    -0.0011    -0.597    -0.213    -0.199  0.8737  0.4507 -0.1830
              Bcc     0.0097     5.194     1.853     1.732 -0.2086  0.6870  0.6961
 
              Baa    -0.0030    -0.406    -0.145    -0.136  0.2993  0.1814  0.9368
    28 C(13)  Bbb    -0.0012    -0.164    -0.058    -0.055  0.4363  0.8471 -0.3034
              Bcc     0.0042     0.570     0.203     0.190  0.8486 -0.4995 -0.1744
 
              Baa    -0.1627   -21.832    -7.790    -7.283  0.5017  0.7627 -0.4081
    29 C(13)  Bbb     0.0741     9.947     3.549     3.318  0.0095  0.4669  0.8842
              Bcc     0.0886    11.885     4.241     3.965  0.8650 -0.4475  0.2271
 
              Baa    -0.0021    -1.125    -0.401    -0.375 -0.1617  0.7337  0.6599
    30 H(1)   Bbb     0.0005     0.249     0.089     0.083  0.6671  0.5741 -0.4748
              Bcc     0.0016     0.876     0.313     0.292  0.7272 -0.3634  0.5823
 
              Baa    -0.0022    -1.174    -0.419    -0.392  0.1740  0.3995  0.9000
    31 H(1)   Bbb    -0.0011    -0.572    -0.204    -0.191  0.3318  0.8367 -0.4356
              Bcc     0.0033     1.746     0.623     0.582  0.9271 -0.3745 -0.0130
 
              Baa    -0.0034    -0.454    -0.162    -0.151 -0.4417  0.7049  0.5549
    32 C(13)  Bbb    -0.0014    -0.190    -0.068    -0.063  0.4605  0.7090 -0.5341
              Bcc     0.0048     0.644     0.230     0.215  0.7699 -0.0197  0.6378
 
              Baa    -0.0021    -1.119    -0.399    -0.373 -0.3741  0.4967  0.7832
    33 H(1)   Bbb    -0.0010    -0.516    -0.184    -0.172  0.3361  0.8597 -0.3847
              Bcc     0.0031     1.635     0.583     0.545  0.8643 -0.1193  0.4886
 
              Baa    -0.0020    -1.086    -0.387    -0.362  0.0071  0.2005  0.9797
    34 H(1)   Bbb     0.0005     0.255     0.091     0.085  0.7329  0.6654 -0.1415
              Bcc     0.0016     0.831     0.296     0.277 -0.6803  0.7190 -0.1422
 
              Baa    -0.0019    -1.026    -0.366    -0.342  0.2129  0.4358  0.8745
    35 H(1)   Bbb     0.0001     0.028     0.010     0.009 -0.0919  0.9000 -0.4261
              Bcc     0.0019     0.998     0.356     0.333  0.9727 -0.0104 -0.2317
 
              Baa    -0.0020    -1.077    -0.384    -0.359 -0.3422  0.4936  0.7995
    36 H(1)   Bbb     0.0001     0.040     0.014     0.013 -0.0908  0.8295 -0.5510
              Bcc     0.0019     1.037     0.370     0.346  0.9352  0.2612  0.2390
 

 ---------------------------------------------------------------------------------

 Unable to Open any file for archive entry.
 1\1\GINC-P09R12N25\FOpt\UMP2-FC\6-31G(d)\C14H18O4(1-,2)\JL3566\17-Nov-
 2021\0\\# MP2/6-31G* Opt=(Redundant,maxstep=5,calcFC) vshift=1000 inte
 gral=(grid=superfine) SCF=(Tight,xqc) Geom=PrintInputOrient\\<qmtool> 
 simtype="Geometry optimization" </qmtool>\\-1,2\C,-0.1461554189,-1.471
 8084528,-0.8399788143\C,0.4170569014,-2.7977092201,-1.2756649479\C,-1.
 5245696517,-1.4878574961,-0.3708058085\O,-2.2280553989,-2.5506378305,-
 0.3430339892\C,-2.0424958961,-0.2127374801,0.1080957184\O,-3.353266056
 2,-0.1311930966,0.5433515974\C,-1.3167608124,0.9572444623,0.030000847\
 O,-1.8463459508,2.1225613699,0.5571918433\C,0.0510638447,0.9696116521,
 -0.4654389196\O,0.7487041204,2.0269155959,-0.4812380861\C,0.5720894493
 ,-0.2980664638,-0.9575302547\C,1.9863373541,-0.2528144769,-1.484577351
 6\H,1.3904564017,-2.9899355077,-0.8097284198\H,-0.2955644116,-3.572137
 5973,-0.9845612649\H,0.5567489194,-2.8517818857,-2.363973427\C,-3.6019
 38984,-0.9623505406,1.6811387938\H,-3.3677794975,-2.0012989595,1.44580
 22997\H,-3.012233165,-0.6175192434,2.5414992186\H,-4.6653390648,-0.845
 7312774,1.9084382623\C,-2.0458521354,3.1208980907,-0.4436704377\H,-2.7
 565886464,2.7688918588,-1.2025157641\H,-2.4715823412,3.9853850604,0.07
 29028357\H,-1.0971566392,3.3937188248,-0.9112464035\H,2.1424486513,-1.
 0420145617,-2.2257019102\H,2.1231855147,0.7175937324,-1.9777619215\C,2
 .9608712605,-0.3503816673,-0.345185355\H,2.807483913,0.4160629747,0.41
 56553621\C,4.304740595,-2.3575589338,-1.1058452122\C,3.9461822972,-1.2
 4862682,-0.1534552303\H,4.2286339788,-3.3332407944,-0.6092933741\H,3.6
 625427942,-2.3783279853,-1.9872228592\C,4.7986498766,-1.196851832,1.08
 75173946\H,4.5012377749,-0.3694176162,1.7377672187\H,4.7166930321,-2.1
 292979289,1.6613911918\H,5.8605751904,-1.0725354847,0.8359733754\H,5.3
 449049606,-2.2540239492,-1.4429248374\\Version=ES64L-G16RevC.01\State=
 2-A\HF=-840.032385\MP2=-842.5482075\PUHF=-840.0419941\PMP2-0=-842.5555
 458\S2=0.843126\S2-1=0.798371\S2A=0.752625\RMSD=6.207e-09\RMSF=3.733e-
 05\Dipole=1.9507325,0.0603632,-0.0086791\PG=C01 [X(C14H18O4)]\\@
 The archive entry for this job was punched.


 WE DON'T KNOW ONE MILLIONTH OF ONE PERCENT ABOUT
 ANYTHING.
                                     T. A. EDISON.
 Job cpu time:       3 days  7 hours 30 minutes  6.3 seconds.
 Elapsed time:       0 days 20 hours 15 minutes 10.8 seconds.
 File lengths (MBytes):  RWF= 116404 Int=      0 D2E=      0 Chk=     20 Scr=      8
 Normal termination of Gaussian 16 at Wed Nov 17 17:57:14 2021.
