 Entering Gaussian System, Link 0=g16
 Initial command:
 /gpfs/loomis/apps/avx/software/Gaussian/16-C.01_AVX/g16/l1.exe "/home/jl3566/scratch60/g16/Gau-2636.inp" -scrdir="/home/jl3566/scratch60/g16/"
 Entering Link 1 = /gpfs/loomis/apps/avx/software/Gaussian/16-C.01_AVX/g16/l1.exe PID=      2637.
  
 Copyright (c) 1988-2019, Gaussian, Inc.  All Rights Reserved.
  
 This is part of the Gaussian(R) 16 program.  It is based on
 the Gaussian(R) 09 system (copyright 2009, Gaussian, Inc.),
 the Gaussian(R) 03 system (copyright 2003, Gaussian, Inc.),
 the Gaussian(R) 98 system (copyright 1998, Gaussian, Inc.),
 the Gaussian(R) 94 system (copyright 1995, Gaussian, Inc.),
 the Gaussian 92(TM) system (copyright 1992, Gaussian, Inc.),
 the Gaussian 90(TM) system (copyright 1990, Gaussian, Inc.),
 the Gaussian 88(TM) system (copyright 1988, Gaussian, Inc.),
 the Gaussian 86(TM) system (copyright 1986, Carnegie Mellon
 University), and the Gaussian 82(TM) system (copyright 1983,
 Carnegie Mellon University). Gaussian is a federally registered
 trademark of Gaussian, Inc.
  
 This software contains proprietary and confidential information,
 including trade secrets, belonging to Gaussian, Inc.
  
 This software is provided under written license and may be
 used, copied, transmitted, or stored only in accord with that
 written license.
  
 The following legend is applicable only to US Government
 contracts under FAR:
  
                    RESTRICTED RIGHTS LEGEND
  
 Use, reproduction and disclosure by the US Government is
 subject to restrictions as set forth in subparagraphs (a)
 and (c) of the Commercial Computer Software - Restricted
 Rights clause in FAR 52.227-19.
  
 Gaussian, Inc.
 340 Quinnipiac St., Bldg. 40, Wallingford CT 06492
  
  
 ---------------------------------------------------------------
 Warning -- This program may not be used in any manner that
 competes with the business of Gaussian, Inc. or will provide
 assistance to any competitor of Gaussian, Inc.  The licensee
 of this program is prohibited from giving any competitor of
 Gaussian, Inc. access to this program.  By using this program,
 the user acknowledges that Gaussian, Inc. is engaged in the
 business of creating and licensing software in the field of
 computational chemistry and represents and warrants to the
 licensee that it is not a competitor of Gaussian, Inc. and that
 it will not use this program in any manner prohibited above.
 ---------------------------------------------------------------
  

 Cite this work as:
 Gaussian 16, Revision C.01,
 M. J. Frisch, G. W. Trucks, H. B. Schlegel, G. E. Scuseria, 
 M. A. Robb, J. R. Cheeseman, G. Scalmani, V. Barone, 
 G. A. Petersson, H. Nakatsuji, X. Li, M. Caricato, A. V. Marenich, 
 J. Bloino, B. G. Janesko, R. Gomperts, B. Mennucci, H. P. Hratchian, 
 J. V. Ortiz, A. F. Izmaylov, J. L. Sonnenberg, D. Williams-Young, 
 F. Ding, F. Lipparini, F. Egidi, J. Goings, B. Peng, A. Petrone, 
 T. Henderson, D. Ranasinghe, V. G. Zakrzewski, J. Gao, N. Rega, 
 G. Zheng, W. Liang, M. Hada, M. Ehara, K. Toyota, R. Fukuda, 
 J. Hasegawa, M. Ishida, T. Nakajima, Y. Honda, O. Kitao, H. Nakai, 
 T. Vreven, K. Throssell, J. A. Montgomery, Jr., J. E. Peralta, 
 F. Ogliaro, M. J. Bearpark, J. J. Heyd, E. N. Brothers, K. N. Kudin, 
 V. N. Staroverov, T. A. Keith, R. Kobayashi, J. Normand, 
 K. Raghavachari, A. P. Rendell, J. C. Burant, S. S. Iyengar, 
 J. Tomasi, M. Cossi, J. M. Millam, M. Klene, C. Adamo, R. Cammi, 
 J. W. Ochterski, R. L. Martin, K. Morokuma, O. Farkas, 
 J. B. Foresman, and D. J. Fox, Gaussian, Inc., Wallingford CT, 2019.
 
 ******************************************
 Gaussian 16:  ES64L-G16RevC.01  3-Jul-2019
                19-Nov-2021 
 ******************************************
 %chk=Q1H-opt-4.chk
 %nproc=4
 Will use up to    4 processors via shared memory.
 %mem=4GB
 ----------------------------------------------------------------------
 # MP2/6-31G* Geom=(AllCheck,ModRedundant) Freq NoSymm IOp(7/33=1) SCF=
 Tight Guess=Read
 ----------------------------------------------------------------------
 1/10=4,18=120,29=7,30=1,38=1/1,3;
 2/12=2,15=1,40=1/2;
 3/5=1,6=6,7=1,11=9,14=-4,25=1,30=1,71=2,116=-2,140=1/1,2,3;
 4/5=1/1;
 5/5=2,32=2,38=6,98=1/2;
 8/6=3,8=1,10=2,19=11,30=-1/1;
 9/15=3,16=-3/6;
 11/6=1,8=1,15=11,17=12,24=-1,27=1,28=-2,29=300,31=1,32=6,42=3/1,2,10;
 10/6=2,21=1,31=1/2;
 8/6=4,8=1,10=2,19=11,30=-1/11,4;
 10/5=1,20=4,31=1/2;
 11/12=2,14=11,16=1,17=2,28=-2,31=1,42=3,76=2/2,10,12;
 6/7=2,8=2,9=2,10=2/1;
 7/8=1,10=1,12=2,25=1,30=1,33=1,44=2/1,2,3,16;
 1/10=4,30=1/3;
 99//99;
 Structure from the checkpoint file:  "Q1H-opt-4.chk"
 --------------------------------------------------
 <qmtool> simtype="Geometry optimization" </qmtool>
 --------------------------------------------------
 Charge = -1 Multiplicity = 2
 Redundant internal coordinates found in file.  (old form).
 C,0,-0.1461554189,-1.4718084528,-0.8399788143
 C,0,0.4170569014,-2.7977092201,-1.2756649479
 C,0,-1.5245696517,-1.4878574961,-0.3708058085
 O,0,-2.2280553989,-2.5506378305,-0.3430339892
 C,0,-2.0424958961,-0.2127374801,0.1080957184
 O,0,-3.3532660562,-0.1311930966,0.5433515974
 C,0,-1.3167608124,0.9572444623,0.030000847
 O,0,-1.8463459508,2.1225613699,0.5571918433
 C,0,0.0510638447,0.9696116521,-0.4654389196
 O,0,0.7487041204,2.0269155959,-0.4812380861
 C,0,0.5720894493,-0.2980664638,-0.9575302547
 C,0,1.9863373541,-0.2528144769,-1.4845773516
 H,0,1.3904564017,-2.9899355077,-0.8097284198
 H,0,-0.2955644116,-3.5721375973,-0.9845612649
 H,0,0.5567489194,-2.8517818857,-2.363973427
 C,0,-3.601938984,-0.9623505406,1.6811387938
 H,0,-3.3677794975,-2.0012989595,1.4458022997
 H,0,-3.012233165,-0.6175192434,2.5414992186
 H,0,-4.6653390648,-0.8457312774,1.9084382623
 C,0,-2.0458521354,3.1208980907,-0.4436704377
 H,0,-2.7565886464,2.7688918588,-1.2025157641
 H,0,-2.4715823412,3.9853850604,0.0729028357
 H,0,-1.0971566392,3.3937188248,-0.9112464035
 H,0,2.1424486513,-1.0420145617,-2.2257019102
 H,0,2.1231855147,0.7175937324,-1.9777619215
 C,0,2.9608712605,-0.3503816673,-0.345185355
 H,0,2.807483913,0.4160629747,0.4156553621
 C,0,4.304740595,-2.3575589338,-1.1058452122
 C,0,3.9461822972,-1.24862682,-0.1534552303
 H,0,4.2286339788,-3.3332407944,-0.6092933741
 H,0,3.6625427942,-2.3783279853,-1.9872228592
 C,0,4.7986498766,-1.196851832,1.0875173946
 H,0,4.5012377749,-0.3694176162,1.7377672187
 H,0,4.7166930321,-2.1292979289,1.6613911918
 H,0,5.8605751904,-1.0725354847,0.8359733754
 H,0,5.3449049606,-2.2540239492,-1.4429248374
 Recover connectivity data from disk.
 The following ModRedundant input section has been read:
 B    *       *    K                                                           
 In this task builder options are not available,
 so the previous line wont be used.
 A    *       *       *    K                                                   
 In this task builder options are not available,
 so the previous line wont be used.
 L    *       *       *    K                                                   
 In this task builder options are not available,
 so the previous line wont be used.
 D    *       *       *       *    K                                           
 B       1       2 A                                                           
 B       1       3 A                                                           
 B       1      11 A                                                           
 B       2      13 A                                                           
 B       2      14 A                                                           
 B       2      15 A                                                           
 B       3       4 A                                                           
 B       3       5 A                                                           
 B       5       6 A                                                           
 B       5       7 A                                                           
 B       6      16 A                                                           
 B       7       8 A                                                           
 B       7       9 A                                                           
 B       8      20 A                                                           
 B       9      10 A                                                           
 B       9      11 A                                                           
 B      11      12 A                                                           
 B      12      24 A                                                           
 B      12      25 A                                                           
 B      12      26 A                                                           
 B      16      17 A                                                           
 B      16      18 A                                                           
 B      16      19 A                                                           
 B      20      21 A                                                           
 B      20      22 A                                                           
 B      20      23 A                                                           
 B      26      27 A                                                           
 B      26      29 A                                                           
 B      28      29 A                                                           
 B      28      30 A                                                           
 B      28      31 A                                                           
 B      28      36 A                                                           
 B      29      32 A                                                           
 B      32      33 A                                                           
 B      32      34 A                                                           
 B      32      35 A                                                           
 A       1       2      13 A                                                   
 A       1       2      14 A                                                   
 A       1       2      15 A                                                   
 A       1       3       4 A                                                   
 A       1       3       5 A                                                   
 A       1      11       9 A                                                   
 A       1      11      12 A                                                   
 A       2       1       3 A                                                   
 A       2       1      11 A                                                   
 A       3       1      11 A                                                   
 A       3       5       6 A                                                   
 A       3       5       7 A                                                   
 A       4       3       5 A                                                   
 A       5       6      16 A                                                   
 A       5       7       8 A                                                   
 A       5       7       9 A                                                   
 A       6       5       7 A                                                   
 A       6      16      17 A                                                   
 A       6      16      18 A                                                   
 A       6      16      19 A                                                   
 A       7       8      20 A                                                   
 A       7       9      10 A                                                   
 A       7       9      11 A                                                   
 A       8       7       9 A                                                   
 A       8      20      21 A                                                   
 A       8      20      22 A                                                   
 A       8      20      23 A                                                   
 A       9      11      12 A                                                   
 A      10       9      11 A                                                   
 A      11      12      24 A                                                   
 A      11      12      25 A                                                   
 A      11      12      26 A                                                   
 A      12      26      27 A                                                   
 A      12      26      29 A                                                   
 A      13       2      14 A                                                   
 A      13       2      15 A                                                   
 A      14       2      15 A                                                   
 A      17      16      18 A                                                   
 A      17      16      19 A                                                   
 A      18      16      19 A                                                   
 A      21      20      22 A                                                   
 A      21      20      23 A                                                   
 A      22      20      23 A                                                   
 A      24      12      25 A                                                   
 A      24      12      26 A                                                   
 A      25      12      26 A                                                   
 A      26      29      28 A                                                   
 A      26      29      32 A                                                   
 A      27      26      29 A                                                   
 A      28      29      32 A                                                   
 A      29      28      30 A                                                   
 A      29      28      31 A                                                   
 A      29      28      36 A                                                   
 A      29      32      33 A                                                   
 A      29      32      34 A                                                   
 A      29      32      35 A                                                   
 A      30      28      31 A                                                   
 A      30      28      36 A                                                   
 A      31      28      36 A                                                   
 A      33      32      34 A                                                   
 A      33      32      35 A                                                   
 A      34      32      35 A                                                   
 D       3       1       2      13 A                                           
 D       3       1       2      14 A                                           
 D       3       1       2      15 A                                           
 D      11       1       2      13 A                                           
 D      11       1       2      14 A                                           
 D      11       1       2      15 A                                           
 D       2       1       3       4 A                                           
 D       2       1       3       5 A                                           
 D      11       1       3       4 A                                           
 D      11       1       3       5 A                                           
 D       2       1      11       9 A                                           
 D       2       1      11      12 A                                           
 D       3       1      11       9 A                                           
 D       3       1      11      12 A                                           
 D       1       3       5       7 A                                           
 D       1       3       5       6 A                                           
 D       4       3       5       7 A                                           
 D       4       3       5       6 A                                           
 D       3       5       6      16 A                                           
 D       7       5       6      16 A                                           
 D       3       5       7       8 A                                           
 D       3       5       7       9 A                                           
 D       6       5       7       8 A                                           
 D       6       5       7       9 A                                           
 D       5       6      16      17 A                                           
 D       5       6      16      18 A                                           
 D       5       6      16      19 A                                           
 D       5       7       8      20 A                                           
 D       9       7       8      20 A                                           
 D       5       7       9      10 A                                           
 D       5       7       9      11 A                                           
 D       8       7       9      10 A                                           
 D       8       7       9      11 A                                           
 D       7       8      20      21 A                                           
 D       7       8      20      22 A                                           
 D       7       8      20      23 A                                           
 D       7       9      11       1 A                                           
 D       7       9      11      12 A                                           
 D      10       9      11       1 A                                           
 D      10       9      11      12 A                                           
 D       1      11      12      24 A                                           
 D       1      11      12      25 A                                           
 D       1      11      12      26 A                                           
 D       9      11      12      24 A                                           
 D       9      11      12      25 A                                           
 D       9      11      12      26 A                                           
 D      11      12      26      29 A                                           
 D      11      12      26      27 A                                           
 D      24      12      26      29 A                                           
 D      24      12      26      27 A                                           
 D      25      12      26      29 A                                           
 D      25      12      26      27 A                                           
 D      12      26      29      28 A                                           
 D      12      26      29      32 A                                           
 D      27      26      29      28 A                                           
 D      27      26      29      32 A                                           
 D      30      28      29      26 A                                           
 D      30      28      29      32 A                                           
 D      31      28      29      26 A                                           
 D      31      28      29      32 A                                           
 D      36      28      29      26 A                                           
 D      36      28      29      32 A                                           
 D      26      29      32      33 A                                           
 D      26      29      32      34 A                                           
 D      26      29      32      35 A                                           
 D      28      29      32      33 A                                           
 D      28      29      32      34 A                                           
 D      28      29      32      35 A                                           
 

 GradGradGradGradGradGradGradGradGradGradGradGradGradGradGradGradGradGrad
 Berny optimization.
 Initialization pass.
                           ----------------------------
                           !    Initial Parameters    !
                           ! (Angstroms and Degrees)  !
 --------------------------                            --------------------------
 ! Name  Definition              Value          Derivative Info.                !
 --------------------------------------------------------------------------------
 ! R1    R(1,2)                  1.505          calculate D2E/DX2 analytically  !
 ! R2    R(1,3)                  1.4562         calculate D2E/DX2 analytically  !
 ! R3    R(1,11)                 1.3811         calculate D2E/DX2 analytically  !
 ! R4    R(2,13)                 1.0962         calculate D2E/DX2 analytically  !
 ! R5    R(2,14)                 1.0919         calculate D2E/DX2 analytically  !
 ! R6    R(2,15)                 1.0986         calculate D2E/DX2 analytically  !
 ! R7    R(3,4)                  1.2748         calculate D2E/DX2 analytically  !
 ! R8    R(3,5)                  1.4572         calculate D2E/DX2 analytically  !
 ! R9    R(5,6)                  1.3836         calculate D2E/DX2 analytically  !
 ! R10   R(5,7)                  1.379          calculate D2E/DX2 analytically  !
 ! R11   R(6,16)                 1.4308         calculate D2E/DX2 analytically  !
 ! R12   R(7,8)                  1.3843         calculate D2E/DX2 analytically  !
 ! R13   R(7,9)                  1.4548         calculate D2E/DX2 analytically  !
 ! R14   R(8,20)                 1.4277         calculate D2E/DX2 analytically  !
 ! R15   R(9,10)                 1.2668         calculate D2E/DX2 analytically  !
 ! R16   R(9,11)                 1.4562         calculate D2E/DX2 analytically  !
 ! R17   R(11,12)                1.5099         calculate D2E/DX2 analytically  !
 ! R18   R(12,24)                1.0938         calculate D2E/DX2 analytically  !
 ! R19   R(12,25)                1.0971         calculate D2E/DX2 analytically  !
 ! R20   R(12,26)                1.5025         calculate D2E/DX2 analytically  !
 ! R21   R(16,17)                1.0907         calculate D2E/DX2 analytically  !
 ! R22   R(16,18)                1.0986         calculate D2E/DX2 analytically  !
 ! R23   R(16,19)                1.0937         calculate D2E/DX2 analytically  !
 ! R24   R(20,21)                1.0977         calculate D2E/DX2 analytically  !
 ! R25   R(20,22)                1.0934         calculate D2E/DX2 analytically  !
 ! R26   R(20,23)                1.0923         calculate D2E/DX2 analytically  !
 ! R27   R(26,27)                1.0908         calculate D2E/DX2 analytically  !
 ! R28   R(26,29)                1.347          calculate D2E/DX2 analytically  !
 ! R29   R(28,29)                1.5051         calculate D2E/DX2 analytically  !
 ! R30   R(28,30)                1.0974         calculate D2E/DX2 analytically  !
 ! R31   R(28,31)                1.0907         calculate D2E/DX2 analytically  !
 ! R32   R(28,36)                1.0983         calculate D2E/DX2 analytically  !
 ! R33   R(29,32)                1.5065         calculate D2E/DX2 analytically  !
 ! R34   R(32,33)                1.0936         calculate D2E/DX2 analytically  !
 ! R35   R(32,34)                1.098          calculate D2E/DX2 analytically  !
 ! R36   R(32,35)                1.0984         calculate D2E/DX2 analytically  !
 ! A1    A(2,1,3)              115.9642         calculate D2E/DX2 analytically  !
 ! A2    A(2,1,11)             121.97           calculate D2E/DX2 analytically  !
 ! A3    A(3,1,11)             121.9438         calculate D2E/DX2 analytically  !
 ! A4    A(1,2,13)             111.3313         calculate D2E/DX2 analytically  !
 ! A5    A(1,2,14)             107.6631         calculate D2E/DX2 analytically  !
 ! A6    A(1,2,15)             112.1936         calculate D2E/DX2 analytically  !
 ! A7    A(13,2,14)            109.9894         calculate D2E/DX2 analytically  !
 ! A8    A(13,2,15)            107.4303         calculate D2E/DX2 analytically  !
 ! A9    A(14,2,15)            108.1909         calculate D2E/DX2 analytically  !
 ! A10   A(1,3,4)              122.5867         calculate D2E/DX2 analytically  !
 ! A11   A(1,3,5)              115.638          calculate D2E/DX2 analytically  !
 ! A12   A(4,3,5)              121.7488         calculate D2E/DX2 analytically  !
 ! A13   A(3,5,6)              119.4511         calculate D2E/DX2 analytically  !
 ! A14   A(3,5,7)              122.4619         calculate D2E/DX2 analytically  !
 ! A15   A(6,5,7)              117.801          calculate D2E/DX2 analytically  !
 ! A16   A(5,6,16)             112.3699         calculate D2E/DX2 analytically  !
 ! A17   A(5,7,8)              119.4262         calculate D2E/DX2 analytically  !
 ! A18   A(5,7,9)              121.4193         calculate D2E/DX2 analytically  !
 ! A19   A(8,7,9)              118.8299         calculate D2E/DX2 analytically  !
 ! A20   A(7,8,20)             112.0325         calculate D2E/DX2 analytically  !
 ! A21   A(7,9,10)             121.945          calculate D2E/DX2 analytically  !
 ! A22   A(7,9,11)             116.3636         calculate D2E/DX2 analytically  !
 ! A23   A(10,9,11)            121.6879         calculate D2E/DX2 analytically  !
 ! A24   A(1,11,9)             121.668          calculate D2E/DX2 analytically  !
 ! A25   A(1,11,12)            122.8392         calculate D2E/DX2 analytically  !
 ! A26   A(9,11,12)            115.2758         calculate D2E/DX2 analytically  !
 ! A27   A(11,12,24)           110.3987         calculate D2E/DX2 analytically  !
 ! A28   A(11,12,25)           107.4725         calculate D2E/DX2 analytically  !
 ! A29   A(11,12,26)           109.9295         calculate D2E/DX2 analytically  !
 ! A30   A(24,12,25)           108.4088         calculate D2E/DX2 analytically  !
 ! A31   A(24,12,26)           111.9866         calculate D2E/DX2 analytically  !
 ! A32   A(25,12,26)           108.5076         calculate D2E/DX2 analytically  !
 ! A33   A(6,16,17)            110.148          calculate D2E/DX2 analytically  !
 ! A34   A(6,16,18)            110.3124         calculate D2E/DX2 analytically  !
 ! A35   A(6,16,19)            105.8023         calculate D2E/DX2 analytically  !
 ! A36   A(17,16,18)           110.6545         calculate D2E/DX2 analytically  !
 ! A37   A(17,16,19)           110.8035         calculate D2E/DX2 analytically  !
 ! A38   A(18,16,19)           109.008          calculate D2E/DX2 analytically  !
 ! A39   A(8,20,21)            110.5414         calculate D2E/DX2 analytically  !
 ! A40   A(8,20,22)            106.0272         calculate D2E/DX2 analytically  !
 ! A41   A(8,20,23)            110.6947         calculate D2E/DX2 analytically  !
 ! A42   A(21,20,22)           109.151          calculate D2E/DX2 analytically  !
 ! A43   A(21,20,23)           110.2756         calculate D2E/DX2 analytically  !
 ! A44   A(22,20,23)           110.057          calculate D2E/DX2 analytically  !
 ! A45   A(12,26,27)           113.086          calculate D2E/DX2 analytically  !
 ! A46   A(12,26,29)           128.733          calculate D2E/DX2 analytically  !
 ! A47   A(27,26,29)           118.1728         calculate D2E/DX2 analytically  !
 ! A48   A(29,28,30)           110.623          calculate D2E/DX2 analytically  !
 ! A49   A(29,28,31)           112.6492         calculate D2E/DX2 analytically  !
 ! A50   A(29,28,36)           110.5096         calculate D2E/DX2 analytically  !
 ! A51   A(30,28,31)           107.9308         calculate D2E/DX2 analytically  !
 ! A52   A(30,28,36)           106.7597         calculate D2E/DX2 analytically  !
 ! A53   A(31,28,36)           108.1439         calculate D2E/DX2 analytically  !
 ! A54   A(26,29,28)           125.1352         calculate D2E/DX2 analytically  !
 ! A55   A(26,29,32)           120.5482         calculate D2E/DX2 analytically  !
 ! A56   A(28,29,32)           114.3164         calculate D2E/DX2 analytically  !
 ! A57   A(29,32,33)           111.2185         calculate D2E/DX2 analytically  !
 ! A58   A(29,32,34)           111.0472         calculate D2E/DX2 analytically  !
 ! A59   A(29,32,35)           111.2437         calculate D2E/DX2 analytically  !
 ! A60   A(33,32,34)           108.1487         calculate D2E/DX2 analytically  !
 ! A61   A(33,32,35)           108.2687         calculate D2E/DX2 analytically  !
 ! A62   A(34,32,35)           106.7377         calculate D2E/DX2 analytically  !
 ! D1    D(3,1,2,13)          -130.3704         calculate D2E/DX2 analytically  !
 ! D2    D(3,1,2,14)            -9.7401         calculate D2E/DX2 analytically  !
 ! D3    D(3,1,2,15)           109.1906         calculate D2E/DX2 analytically  !
 ! D4    D(11,1,2,13)           53.5747         calculate D2E/DX2 analytically  !
 ! D5    D(11,1,2,14)          174.205          calculate D2E/DX2 analytically  !
 ! D6    D(11,1,2,15)          -66.8643         calculate D2E/DX2 analytically  !
 ! D7    D(2,1,3,4)             -0.9234         calculate D2E/DX2 analytically  !
 ! D8    D(2,1,3,5)            177.2335         calculate D2E/DX2 analytically  !
 ! D9    D(11,1,3,4)           175.1326         calculate D2E/DX2 analytically  !
 ! D10   D(11,1,3,5)            -6.7105         calculate D2E/DX2 analytically  !
 ! D11   D(2,1,11,9)          -176.4973         calculate D2E/DX2 analytically  !
 ! D12   D(2,1,11,12)           -2.1047         calculate D2E/DX2 analytically  !
 ! D13   D(3,1,11,9)             7.6829         calculate D2E/DX2 analytically  !
 ! D14   D(3,1,11,12)         -177.9244         calculate D2E/DX2 analytically  !
 ! D15   D(1,3,5,6)            178.5178         calculate D2E/DX2 analytically  !
 ! D16   D(1,3,5,7)              4.7983         calculate D2E/DX2 analytically  !
 ! D17   D(4,3,5,6)             -3.3084         calculate D2E/DX2 analytically  !
 ! D18   D(4,3,5,7)           -177.0279         calculate D2E/DX2 analytically  !
 ! D19   D(3,5,6,16)            62.4596         calculate D2E/DX2 analytically  !
 ! D20   D(7,5,6,16)          -123.53           calculate D2E/DX2 analytically  !
 ! D21   D(3,5,7,8)           -177.1969         calculate D2E/DX2 analytically  !
 ! D22   D(3,5,7,9)             -3.8164         calculate D2E/DX2 analytically  !
 ! D23   D(6,5,7,8)              8.9853         calculate D2E/DX2 analytically  !
 ! D24   D(6,5,7,9)           -177.6342         calculate D2E/DX2 analytically  !
 ! D25   D(5,6,16,17)          -58.1204         calculate D2E/DX2 analytically  !
 ! D26   D(5,6,16,18)           64.3217         calculate D2E/DX2 analytically  !
 ! D27   D(5,6,16,19)         -177.9229         calculate D2E/DX2 analytically  !
 ! D28   D(5,7,8,20)          -117.6872         calculate D2E/DX2 analytically  !
 ! D29   D(9,7,8,20)            68.7603         calculate D2E/DX2 analytically  !
 ! D30   D(5,7,9,10)          -176.5312         calculate D2E/DX2 analytically  !
 ! D31   D(5,7,9,11)             4.1379         calculate D2E/DX2 analytically  !
 ! D32   D(8,7,9,10)            -3.1123         calculate D2E/DX2 analytically  !
 ! D33   D(8,7,9,11)           177.5568         calculate D2E/DX2 analytically  !
 ! D34   D(7,8,20,21)           61.2776         calculate D2E/DX2 analytically  !
 ! D35   D(7,8,20,22)          179.4509         calculate D2E/DX2 analytically  !
 ! D36   D(7,8,20,23)          -61.2117         calculate D2E/DX2 analytically  !
 ! D37   D(7,9,11,1)            -6.0759         calculate D2E/DX2 analytically  !
 ! D38   D(7,9,11,12)          179.133          calculate D2E/DX2 analytically  !
 ! D39   D(10,9,11,1)          174.5914         calculate D2E/DX2 analytically  !
 ! D40   D(10,9,11,12)          -0.1997         calculate D2E/DX2 analytically  !
 ! D41   D(1,11,12,24)          31.6605         calculate D2E/DX2 analytically  !
 ! D42   D(1,11,12,25)         149.7126         calculate D2E/DX2 analytically  !
 ! D43   D(1,11,12,26)         -92.3756         calculate D2E/DX2 analytically  !
 ! D44   D(9,11,12,24)        -153.6163         calculate D2E/DX2 analytically  !
 ! D45   D(9,11,12,25)         -35.5642         calculate D2E/DX2 analytically  !
 ! D46   D(9,11,12,26)          82.3477         calculate D2E/DX2 analytically  !
 ! D47   D(11,12,26,27)        -55.6663         calculate D2E/DX2 analytically  !
 ! D48   D(11,12,26,29)        123.2579         calculate D2E/DX2 analytically  !
 ! D49   D(24,12,26,27)       -178.7747         calculate D2E/DX2 analytically  !
 ! D50   D(24,12,26,29)          0.1494         calculate D2E/DX2 analytically  !
 ! D51   D(25,12,26,27)         61.6023         calculate D2E/DX2 analytically  !
 ! D52   D(25,12,26,29)       -119.4736         calculate D2E/DX2 analytically  !
 ! D53   D(12,26,29,28)          1.9065         calculate D2E/DX2 analytically  !
 ! D54   D(12,26,29,32)       -178.2641         calculate D2E/DX2 analytically  !
 ! D55   D(27,26,29,28)       -179.2162         calculate D2E/DX2 analytically  !
 ! D56   D(27,26,29,32)          0.6132         calculate D2E/DX2 analytically  !
 ! D57   D(30,28,29,26)       -121.8456         calculate D2E/DX2 analytically  !
 ! D58   D(30,28,29,32)         58.3156         calculate D2E/DX2 analytically  !
 ! D59   D(31,28,29,26)         -0.9504         calculate D2E/DX2 analytically  !
 ! D60   D(31,28,29,32)        179.2108         calculate D2E/DX2 analytically  !
 ! D61   D(36,28,29,26)        120.1375         calculate D2E/DX2 analytically  !
 ! D62   D(36,28,29,32)        -59.7013         calculate D2E/DX2 analytically  !
 ! D63   D(26,29,32,33)         -0.3518         calculate D2E/DX2 analytically  !
 ! D64   D(26,29,32,34)        120.1406         calculate D2E/DX2 analytically  !
 ! D65   D(26,29,32,35)       -121.1302         calculate D2E/DX2 analytically  !
 ! D66   D(28,29,32,33)        179.495          calculate D2E/DX2 analytically  !
 ! D67   D(28,29,32,34)        -60.0126         calculate D2E/DX2 analytically  !
 ! D68   D(28,29,32,35)         58.7166         calculate D2E/DX2 analytically  !
 --------------------------------------------------------------------------------
 Trust Radius=3.00D-01 FncErr=1.00D-07 GrdErr=1.00D-07 EigMax=2.50D+02 EigMin=1.00D-04
 Number of steps in this run=      2 maximum allowed number of steps=      2.
 GradGradGradGradGradGradGradGradGradGradGradGradGradGradGradGradGradGrad

                          Input orientation:                          
 ---------------------------------------------------------------------
 Center     Atomic      Atomic             Coordinates (Angstroms)
 Number     Number       Type             X           Y           Z
 ---------------------------------------------------------------------
      1          6           0       -0.146155   -1.471808   -0.839979
      2          6           0        0.417057   -2.797709   -1.275665
      3          6           0       -1.524570   -1.487857   -0.370806
      4          8           0       -2.228055   -2.550638   -0.343034
      5          6           0       -2.042496   -0.212737    0.108096
      6          8           0       -3.353266   -0.131193    0.543352
      7          6           0       -1.316761    0.957244    0.030001
      8          8           0       -1.846346    2.122561    0.557192
      9          6           0        0.051064    0.969612   -0.465439
     10          8           0        0.748704    2.026916   -0.481238
     11          6           0        0.572089   -0.298066   -0.957530
     12          6           0        1.986337   -0.252814   -1.484577
     13          1           0        1.390456   -2.989936   -0.809728
     14          1           0       -0.295564   -3.572138   -0.984561
     15          1           0        0.556749   -2.851782   -2.363973
     16          6           0       -3.601939   -0.962351    1.681139
     17          1           0       -3.367779   -2.001299    1.445802
     18          1           0       -3.012233   -0.617519    2.541499
     19          1           0       -4.665339   -0.845731    1.908438
     20          6           0       -2.045852    3.120898   -0.443670
     21          1           0       -2.756589    2.768892   -1.202516
     22          1           0       -2.471582    3.985385    0.072903
     23          1           0       -1.097157    3.393719   -0.911246
     24          1           0        2.142449   -1.042015   -2.225702
     25          1           0        2.123186    0.717594   -1.977762
     26          6           0        2.960871   -0.350382   -0.345185
     27          1           0        2.807484    0.416063    0.415655
     28          6           0        4.304741   -2.357559   -1.105845
     29          6           0        3.946182   -1.248627   -0.153455
     30          1           0        4.228634   -3.333241   -0.609293
     31          1           0        3.662543   -2.378328   -1.987223
     32          6           0        4.798650   -1.196852    1.087517
     33          1           0        4.501238   -0.369418    1.737767
     34          1           0        4.716693   -2.129298    1.661391
     35          1           0        5.860575   -1.072535    0.835973
     36          1           0        5.344905   -2.254024   -1.442925
 ---------------------------------------------------------------------
                    Distance matrix (angstroms):
                    1          2          3          4          5
     1  C    0.000000
     2  C    1.505006   0.000000
     3  C    1.456162   2.510855   0.000000
     4  O    2.396901   2.815575   1.274820   0.000000
     5  C    2.465809   3.827045   1.457232   2.388248   0.000000
     6  O    3.741178   4.963312   2.453641   2.811671   1.383552
     7  C    2.833281   4.337115   2.486434   3.643467   1.379003
     8  O    4.214526   5.717641   3.741637   4.774400   2.386165
     9  C    2.477843   3.870804   2.920742   4.195417   2.471818
    10  O    3.629124   4.900827   4.187314   5.462069   3.626866
    11  C    1.381074   2.524571   2.481094   3.645887   2.824694
    12  C    2.539484   2.997128   3.884879   4.933986   4.332402
    13  H    2.160278   1.096154   3.308515   3.674835   4.510032
    14  H    2.110595   1.091929   2.496272   2.278056   3.940969
    15  H    2.172777   1.098569   3.188243   3.453986   4.453286
    16  C    4.307902   5.316348   2.966833   2.916760   2.338428
    17  H    3.985476   4.729232   2.638391   2.191045   2.597073
    18  H    4.514267   5.575303   3.384103   3.559833   2.650602
    19  H    5.326236   6.307098   3.933410   3.730440   3.243643
    20  C    4.985866   6.464368   4.638715   5.675354   3.378991
    21  H    4.992928   6.408153   4.508828   5.414375   3.334328
    22  H    6.001827   7.494881   5.572261   6.553770   4.220141
    23  H    4.958108   6.384311   4.929964   6.077596   3.865133
    24  H    2.709734   2.638562   4.133575   4.992163   4.862928
    25  H    3.352304   3.970034   4.555485   5.682162   4.750707
    26  C    3.340065   3.650506   4.627493   5.636142   5.025743
    27  H    3.723528   4.347762   4.796887   5.893520   4.900233
    28  C    4.545956   3.916204   5.939488   6.580014   6.808915
    29  C    4.155521   4.014192   5.480292   6.312874   6.083235
    30  H    4.759929   3.906273   6.046625   6.509393   7.041254
    31  H    4.079722   3.348936   5.505622   6.118186   6.451946
    32  C    5.314315   5.229315   6.495729   7.297520   6.980618
    33  H    5.427550   5.626536   6.481307   7.373659   6.745430
    34  H    5.507853   5.249756   6.595046   7.240496   7.195316
    35  H    6.248924   6.088278   7.494610   8.306671   7.982956
    36  H    5.579171   4.960570   6.994722   7.658164   7.819604
                    6          7          8          9         10
     6  O    0.000000
     7  C    2.365498   0.000000
     8  O    2.711164   1.384324   0.000000
     9  C    3.717377   1.454839   2.444428   0.000000
    10  O    4.746933   2.381535   2.796743   1.266824   0.000000
    11  C    4.205818   2.473616   3.742012   1.456238   2.379830
    12  C    5.713025   3.829967   4.949817   2.505644   2.781294
    13  H    5.701415   4.859465   6.203466   4.194106   5.068387
    14  H    4.850171   4.752629   6.100125   4.584444   5.717799
    15  H    5.580534   4.873380   6.249173   4.296883   5.232899
    16  C    1.430811   3.410739   3.723177   4.656684   5.704356
    17  H    2.076517   3.868352   4.484486   4.916060   6.073338
    18  H    2.084565   3.414986   3.578381   4.576511   5.502238
    19  H    2.023749   4.241724   4.310841   5.583477   6.578337
    20  C    3.641379   2.331810   1.427657   3.004258   3.001292
    21  H    3.437233   2.621882   2.083952   3.415202   3.654839
    22  H    4.236143   3.241155   2.023751   3.968431   3.809583
    23  H    4.430676   2.621179   2.081691   2.719090   2.336720
    24  H    6.220943   4.588176   5.802544   3.393974   3.795262
    25  H    6.088347   3.990210   4.914988   2.577658   2.417252
    26  C    6.380115   4.488740   5.480791   3.197471   3.250190
    27  H    6.186327   4.177440   4.958861   2.946285   2.763664
    28  C    8.143809   6.624149   7.789290   5.438194   5.679714
    29  C    7.417287   5.709474   6.739682   4.493313   4.589171
    30  H    8.310650   7.040480   8.248142   5.998944   6.391994
    31  H    7.789416   6.323662   7.555125   5.154348   5.492232
    32  C    8.239264   6.569377   7.446860   5.444705   5.408857
    33  H    7.948372   6.206900   6.920660   5.143070   4.974727
    34  H    8.388485   6.970706   7.897534   5.991222   6.132692
    35  H    9.266425   7.502250   8.347634   6.294002   6.121509
    36  H    9.171144   7.540527   8.652691   6.274716   6.354239
                   11         12         13         14         15
    11  C    0.000000
    12  C    1.509942   0.000000
    13  H    2.817398   2.881376   0.000000
    14  H    3.387196   4.058940   1.792259   0.000000
    15  H    2.915438   3.093815   1.769133   1.774297   0.000000
    16  C    4.982606   6.461736   5.936289   4.984883   6.101440
    17  H    4.919306   6.349086   5.357764   4.220510   5.535308
    18  H    5.019226   6.428686   6.020196   5.342580   6.464768
    19  H    5.995362   7.490588   6.975579   5.907425   7.039030
    20  C    4.336703   5.359475   7.020292   6.939222   6.792202
    21  H    4.532808   5.630774   7.107486   6.805351   6.627153
    22  H    5.354782   6.345166   8.021813   7.935328   7.864859
    23  H    4.051889   4.809766   6.851975   7.012209   6.622092
    24  H    2.151220   1.093834   2.522869   3.726374   2.410149
    25  H    2.116208   1.097110   3.955625   5.023803   3.917056
    26  C    2.466573   1.502481   3.106324   4.625244   4.014015
    27  H    2.718935   2.175445   3.887204   5.243592   4.844683
    28  C    4.265699   3.154105   2.996771   4.759487   3.984292
    29  C    3.596471   2.569926   3.161421   4.907327   4.352557
    30  H    4.764858   3.909353   2.865883   4.546017   4.097981
    31  H    3.865056   2.753203   2.631147   4.254071   3.164183
    32  C    4.780570   3.926319   4.293073   5.990535   5.713607
    33  H    4.765283   4.089233   4.799355   6.377915   6.208494
    34  H    5.233536   4.568714   4.232136   5.848553   5.833582
    35  H    5.637778   4.589838   5.134853   6.889152   6.444839
    36  H    5.180844   3.909802   4.071875   5.810543   4.912442
                   16         17         18         19         20
    16  C    0.000000
    17  H    1.090701   0.000000
    18  H    1.098582   1.800503   0.000000
    19  H    1.093657   1.798063   1.784827   0.000000
    20  C    4.858924   5.617339   4.880665   5.303610   0.000000
    21  H    4.790851   5.490161   5.054778   5.136815   1.097680
    22  H    5.323929   6.207126   5.251000   5.614396   1.093358
    23  H    5.654179   6.310121   5.628410   6.217354   1.092283
    24  H    6.947499   6.690500   7.033999   7.967159   6.168253
    25  H    6.999058   7.018822   6.969847   7.976879   5.050761
    26  C    6.895721   6.781223   6.639449   7.967639   6.093173
    27  H    6.676988   6.711089   6.281450   7.724222   5.622228
    28  C    8.498792   8.093540   8.358766   9.582998   8.413204
    29  C    7.773148   7.524505   7.488700   8.864087   7.421688
    30  H    8.496180   7.981415   8.350616   9.572326   9.002917
    31  H    8.260422   7.832831   8.256053   9.320871   8.075259
    32  C    8.424801   8.213773   7.966152   9.506013   8.236183
    33  H    8.125038   8.041748   7.560409   9.180530   7.733393
    34  H    8.400107   8.088359   7.924416   9.472650   8.816341
    35  H    9.500822   9.295000   9.046689  10.582840   9.040684
    36  H    9.564215   9.182564   9.401890  10.649878   9.193018
                   21         22         23         24         25
    21  H    0.000000
    22  H    1.785435   0.000000
    23  H    1.796931   1.790995   0.000000
    24  H    6.290507   7.200529   5.647882   0.000000
    25  H    5.349862   5.999631   4.320845   1.777095   0.000000
    26  C    6.569188   6.963133   5.550343   2.164374   2.123110
    27  H    6.254053   6.381699   5.086582   3.089503   2.507515
    28  C    8.726524   9.356331   7.892754   2.767714   3.869882
    29  C    7.884676   8.284553   6.896440   2.755059   3.243060
    30  H    9.294153   9.945882   8.585290   3.494948   4.766013
    31  H    8.265282   9.075707   7.558372   2.037963   3.457520
    32  C    8.834761   8.985616   7.734916   4.249330   4.496571
    33  H    8.436249   8.387866   7.247102   4.661047   4.543334
    34  H    9.383185   9.569950   8.421581   4.787318   5.298538
    35  H    9.652332   9.776998   8.450458   4.816560   5.008967
    36  H    9.535286  10.115603   8.583696   3.512468   4.415432
                   26         27         28         29         30
    26  C    0.000000
    27  H    1.090800   0.000000
    28  C    2.532459   3.499960   0.000000
    29  C    1.347012   2.095641   1.505105   0.000000
    30  H    3.251834   4.138534   1.097411   2.152483   0.000000
    31  H    2.702073   3.783328   1.090723   2.172413   1.769465
    32  C    2.479230   2.649082   2.530223   1.506451   2.787157
    33  H    2.590711   2.287742   3.475262   2.158198   3.790416
    34  H    3.205277   3.416987   2.807028   2.159383   2.616044
    35  H    3.213242   3.422566   2.800458   2.162146   3.140512
    36  H    3.242299   4.125796   1.098310   2.151739   1.762303
                   31         32         33         34         35
    31  H    0.000000
    32  C    3.484344   0.000000
    33  H    4.314473   1.093584   0.000000
    34  H    3.806000   1.097954   1.774664   0.000000
    35  H    3.808789   1.098369   1.776346   1.762534   0.000000
    36  H    1.772584   2.796273   3.792139   3.169698   2.618245
                   36
    36  H    0.000000
 Symmetry turned off by external request.
 Stoichiometry    C14H18O4(1-,2)
 Framework group  C1[X(C14H18O4)]
 Deg. of freedom   102
 Full point group                 C1      NOp   1
 Rotational constants (GHZ):           0.6358259           0.2583283           0.2082585
 Standard basis: 6-31G(d) (6D, 7F)
   306 basis functions,   576 primitive gaussians,   306 cartesian basis functions
    68 alpha electrons       67 beta electrons
       nuclear repulsion energy      1344.2869269277 Hartrees.
 NAtoms=   36 NActive=   36 NUniq=   36 SFac= 1.00D+00 NAtFMM=   60 NAOKFM=F Big=F
 Integral buffers will be    131072 words long.
 Raffenetti 2 integral format.
 Two-electron integral symmetry is turned off.
 One-electron integrals computed using PRISM.
 NBasis=   306 RedAO= T EigKep=  3.48D-04  NBF=   306
 NBsUse=   306 1.00D-06 EigRej= -1.00D+00 NBFU=   306
 Initial guess from the checkpoint file:  "Q1H-opt-4.chk"
 B after Tr=     0.231171   -0.676473   -0.407528
         Rot=    0.987702   -0.006980   -0.057182    0.145350 Ang= -17.99 deg.
 Initial guess <Sx>= 0.0000 <Sy>= 0.0000 <Sz>= 0.5000 <S**2>= 0.8431 S= 0.5455
 Requested convergence on RMS density matrix=1.00D-08 within 128 cycles.
 Requested convergence on MAX density matrix=1.00D-06.
 Requested convergence on             energy=1.00D-06.
 No special actions if energy rises.
 SCF Done:  E(UHF) =  -840.032384964     A.U. after    2 cycles
            NFock=  2  Conv=0.51D-08     -V/T= 2.0021
 <Sx>= 0.0000 <Sy>= 0.0000 <Sz>= 0.5000 <S**2>= 0.8431 S= 0.5455
 <L.S>=  0.00000000000    
 Annihilation of the first spin contaminant:
 S**2 before annihilation     0.8431,   after     0.7526
 ExpMin= 1.61D-01 ExpMax= 5.48D+03 ExpMxC= 8.25D+02 IAcc=3 IRadAn=         5 AccDes= 0.00D+00
 HarFok:  IExCor=  205 AccDes= 0.00D+00 IRadAn=         5 IDoV=-2 UseB2=F ITyADJ=14
 ICtDFT= 12500011 ScaDFX=  1.000000  1.000000  1.000000  1.000000
 Range of M.O.s used for correlation:    19   306
 NBasis=   306 NAE=    68 NBE=    67 NFC=    18 NFV=     0
 NROrb=    288 NOA=    50 NOB=    49 NVA=   238 NVB=   239
 Disk-based method using ON**2 memory for 50 occupieds at a time.
 Permanent disk used for amplitudes=   386283877 words.
 Estimated scratch disk usage=  2351879202 words.
 Actual    scratch disk usage=  2205078562 words.
 JobTyp=2 Pass  1:  I=  19 to  68 NPSUse=  4 ParTrn=T ParDer=T DoDerP=T.
 Actual    scratch disk usage=  2205078562 words.
 JobTyp=3 Pass  1:  I=  19 to  67 NPSUse=  4 ParTrn=T ParDer=T DoDerP=T.
 Spin components of T(2) and E(2):
     alpha-alpha T2 =       0.1135395867D+00 E2=     -0.3375927030D+00
     alpha-beta  T2 =       0.6043985826D+00 E2=     -0.1846126846D+01
     beta-beta   T2 =       0.1121692730D+00 E2=     -0.3321029743D+00
 (S**2,0)=  0.84313D+00           (S**2,1)=  0.79837D+00
 E(PUHF)=      -0.84004199407D+03        E(PMP2)=      -0.84255554578D+03
 ANorm=    0.1352814637D+01
 E2 =    -0.2515822523D+01 EUMP2 =    -0.84254820748703D+03
 G2DrvN: will do    37 centers at a time, making    1 passes.
 Calling FoFCou, ICntrl=  3107 FMM=F I1Cent=   0 AccDes= 0.00D+00.
 End of G2Drv F.D. properties file   721 does not exist.
 End of G2Drv F.D. properties file   722 does not exist.
 End of G2Drv F.D. properties file   788 does not exist.
          IDoAtm=111111111111111111111111111111111111
          Differentiating once with respect to electric field.
                with respect to dipole field.
          Differentiating once with respect to nuclear coordinates.
          There are   111 degrees of freedom in the 1st order CPHF.  IDoFFX=6 NUNeed=   111.
    108 vectors produced by pass  0 Test12= 3.22D-14 1.00D-09 XBig12= 1.25D+02 4.95D+00.
 AX will form   108 AO Fock derivatives at one time.
    108 vectors produced by pass  1 Test12= 3.22D-14 1.00D-09 XBig12= 8.27D+00 4.52D-01.
    108 vectors produced by pass  2 Test12= 3.22D-14 1.00D-09 XBig12= 7.26D-01 3.25D-01.
    108 vectors produced by pass  3 Test12= 3.22D-14 1.00D-09 XBig12= 1.63D-02 2.16D-02.
    108 vectors produced by pass  4 Test12= 3.22D-14 1.00D-09 XBig12= 2.46D-04 1.55D-03.
    108 vectors produced by pass  5 Test12= 3.22D-14 1.00D-09 XBig12= 4.58D-06 1.83D-04.
    108 vectors produced by pass  6 Test12= 3.22D-14 1.00D-09 XBig12= 7.13D-08 2.58D-05.
     67 vectors produced by pass  7 Test12= 3.22D-14 1.00D-09 XBig12= 1.02D-09 2.32D-06.
     20 vectors produced by pass  8 Test12= 3.22D-14 1.00D-09 XBig12= 1.22D-11 2.08D-07.
      3 vectors produced by pass  9 Test12= 3.22D-14 1.00D-09 XBig12= 1.56D-13 2.29D-08.
      2 vectors produced by pass 10 Test12= 3.22D-14 1.00D-09 XBig12= 2.39D-15 2.66D-09.
 InvSVY:  IOpt=1 It=  1 EMax= 3.21D-14
 Solved reduced A of dimension   848 with   111 vectors.
 End of Minotr F.D. properties file   721 does not exist.
 End of Minotr F.D. properties file   722 does not exist.
 End of Minotr F.D. properties file   788 does not exist.
 MDV=   536870912.
 Form MO integral derivatives with frozen-active canonical formalism.
 Discarding MO integrals.
 Reordered first order wavefunction length =   1550029452
 In DefCFB: NBatch=  1 ICI= 68 ICA=239 LFMax= 30
            Large arrays: LIAPS= 12059193168 LIARS=  1044353520 words.
 In DefCFB: NBatch=  1 ICI= 68 ICA=239 LFMax= 30
            Large arrays: LIAPS= 12059193168 LIARS=  1044353520 words.
 Semi-Direct transformation.
 ModeAB=           4 MOrb=            68 LenV=     534343532
 LASXX=    822068575 LTotXX=   822068575 LenRXX=  1692441205
 LTotAB=   870372630 MaxLAS=   781631712 LenRXY=           0
 NonZer=  2514509780 LenScr=  3773825024 LnRSAI=   781631712
 LnScr1=  1173356544 LExtra=           0 Total=   7421254485
 MaxDsk=          -1 SrtSym=           T ITran=            4
 JobTyp=1 Pass  1:  I=   1 to  68.
 ModeAB=           4 MOrb=            67 LenV=     534343532
 LASXX=    812575062 LTotXX=   812575062 LenRXX=  1332789393
 LTotAB=   520214331 MaxLAS=   770137128 LenRXY=           0
 NonZer=  2145364455 LenScr=  3219128320 LnRSAI=   770137128
 LnScr1=  1156055040 LExtra=           0 Total=   6478109881
 MaxDsk=          -1 SrtSym=           T ITran=            4
 JobTyp=2 Pass  1:  I=   1 to  67.
 Spin components of T(2) and E(2):
     alpha-alpha T2 =       0.1135395867D+00 E2=     -0.3375927030D+00
     alpha-beta  T2 =       0.6043985826D+00 E2=     -0.1846126846D+01
     beta-beta   T2 =       0.1121692730D+00 E2=     -0.3321029743D+00
 ANorm=    0.1913168807D+01
 E2 =    -0.2515822523D+01 EUMP2 =    -0.84254820748703D+03
 (S**2,0)=  0.84313D+00           (S**2,1)=  0.79837D+00
 E(PUHF)=      -0.84004199407D+03        E(PMP2)=      -0.84255554578D+03
          IDoAtm=111111111111111111111111111111111111
          Differentiating once with respect to electric field.
                with respect to dipole field.
          Differentiating once with respect to nuclear coordinates.
          There are     1 degrees of freedom in the 1st order CPHF.  IDoFFX=0 NUNeed=     1.
 LinEq1:  Iter=  0 NonCon=     1 RMS=1.81D-03 Max=6.33D-02 NDo=     1
 LinEq1:  Iter=  1 NonCon=     1 RMS=7.07D-04 Max=4.34D-02 NDo=     1
 LinEq1:  Iter=  2 NonCon=     1 RMS=3.04D-04 Max=1.29D-02 NDo=     1
 LinEq1:  Iter=  3 NonCon=     1 RMS=1.68D-04 Max=1.29D-02 NDo=     1
 LinEq1:  Iter=  4 NonCon=     1 RMS=5.76D-05 Max=2.73D-03 NDo=     1
 LinEq1:  Iter=  5 NonCon=     1 RMS=2.07D-05 Max=8.22D-04 NDo=     1
 LinEq1:  Iter=  6 NonCon=     1 RMS=9.97D-06 Max=4.89D-04 NDo=     1
 LinEq1:  Iter=  7 NonCon=     1 RMS=4.57D-06 Max=2.90D-04 NDo=     1
 LinEq1:  Iter=  8 NonCon=     1 RMS=2.04D-06 Max=9.11D-05 NDo=     1
 LinEq1:  Iter=  9 NonCon=     1 RMS=8.02D-07 Max=2.48D-05 NDo=     1
 LinEq1:  Iter= 10 NonCon=     1 RMS=3.04D-07 Max=1.58D-05 NDo=     1
 LinEq1:  Iter= 11 NonCon=     1 RMS=1.46D-07 Max=5.03D-06 NDo=     1
 LinEq1:  Iter= 12 NonCon=     1 RMS=6.21D-08 Max=3.36D-06 NDo=     1
 LinEq1:  Iter= 13 NonCon=     1 RMS=2.46D-08 Max=1.02D-06 NDo=     1
 LinEq1:  Iter= 14 NonCon=     1 RMS=9.66D-09 Max=3.71D-07 NDo=     1
 LinEq1:  Iter= 15 NonCon=     1 RMS=3.61D-09 Max=1.19D-07 NDo=     1
 LinEq1:  Iter= 16 NonCon=     1 RMS=1.70D-09 Max=7.90D-08 NDo=     1
 LinEq1:  Iter= 17 NonCon=     1 RMS=7.19D-10 Max=2.45D-08 NDo=     1
 LinEq1:  Iter= 18 NonCon=     1 RMS=3.41D-10 Max=1.56D-08 NDo=     1
 LinEq1:  Iter= 19 NonCon=     1 RMS=1.57D-10 Max=6.97D-09 NDo=     1
 LinEq1:  Iter= 20 NonCon=     1 RMS=7.38D-11 Max=4.25D-09 NDo=     1
 LinEq1:  Iter= 21 NonCon=     1 RMS=2.81D-11 Max=1.04D-09 NDo=     1
 LinEq1:  Iter= 22 NonCon=     0 RMS=1.03D-11 Max=3.97D-10 NDo=     1
 Linear equations converged to 1.000D-10 1.000D-09 after    22 iterations.
 End of Minotr F.D. properties file   721 does not exist.
 End of Minotr F.D. properties file   722 does not exist.
 End of Minotr F.D. properties file   788 does not exist.
 Symmetrizing basis deriv contribution to polar:
 IMax=3 JMax=2 DiffMx= 0.00D+00
 G2DrvN: will do    37 centers at a time, making    1 passes.
 Calling FoFCou, ICntrl=  3107 FMM=F I1Cent=   0 AccDes= 0.00D+00.
 End of G2Drv F.D. properties file   721 does not exist.
 End of G2Drv F.D. properties file   722 does not exist.
 End of G2Drv F.D. properties file   788 does not exist.
 Would need an additional  1683921966 words for in-memory AO integral storage.
 DD1Dir will call FoFJK  28 times, MxPair=       486
 NAB=  4556 NAA=  2278 NBB=  2211 NumPrc=  4.
 FoFJK:  IHMeth= 1 ICntrl=     200 DoSepK=F KAlg= 0 I1Cent=           0 FoldK=F
 IRaf= 990000000 NMat=     486 IRICut=     607 DoRegI=T DoRafI=T ISym2E= 0 IDoP0=0 IntGTp=1.
 FoFCou: FMM=F IPFlag=           0 FMFlag=           0 FMFlg1=           0
         NFxFlg=           0 DoJE=F BraDBF=F KetDBF=F FulRan=T
         wScrn=  0.000000 ICntrl=       200 IOpCl=  0 I1Cent=           0 NGrid=           0
         NMat0=  486 NMatS0=      0 NMatT0=  243 NMatD0=  486 NMtDS0=    0 NMtDT0=    0
 Symmetry not used in FoFCou.
 Raff kept on since  22.41% of shell-pairs survive, threshold=   0.20 IRatSp=22.
 Discarding MO integrals.

 **********************************************************************

            Population analysis using the SCF Density.

 **********************************************************************

 Alpha  occ. eigenvalues --  -20.43444 -20.43441 -20.37538 -20.37003 -11.14381
 Alpha  occ. eigenvalues --  -11.14115 -11.13993 -11.13968 -11.13787 -11.13390
 Alpha  occ. eigenvalues --  -11.12561 -11.12528 -11.12272 -11.11133 -11.09973
 Alpha  occ. eigenvalues --  -11.09259 -11.08724 -11.08693  -1.25822  -1.23639
 Alpha  occ. eigenvalues --   -1.19026  -1.18751  -0.99669  -0.97293  -0.90815
 Alpha  occ. eigenvalues --   -0.87888  -0.84252  -0.82201  -0.81124  -0.78670
 Alpha  occ. eigenvalues --   -0.75383  -0.73683  -0.63838  -0.63174  -0.59801
 Alpha  occ. eigenvalues --   -0.56931  -0.53874  -0.52565  -0.51666  -0.50258
 Alpha  occ. eigenvalues --   -0.49619  -0.49170  -0.48222  -0.47984  -0.47711
 Alpha  occ. eigenvalues --   -0.45186  -0.44402  -0.44240  -0.43814  -0.42585
 Alpha  occ. eigenvalues --   -0.42198  -0.41514  -0.40979  -0.40076  -0.39698
 Alpha  occ. eigenvalues --   -0.38185  -0.37841  -0.37095  -0.36536  -0.35983
 Alpha  occ. eigenvalues --   -0.32253  -0.31517  -0.26668  -0.25632  -0.25317
 Alpha  occ. eigenvalues --   -0.21844  -0.17561  -0.09704
 Alpha virt. eigenvalues --    0.27695   0.30362   0.32283   0.33091   0.36069
 Alpha virt. eigenvalues --    0.37889   0.38756   0.39186   0.39591   0.41625
 Alpha virt. eigenvalues --    0.41822   0.42113   0.42795   0.43591   0.43849
 Alpha virt. eigenvalues --    0.44294   0.45421   0.46704   0.46941   0.47114
 Alpha virt. eigenvalues --    0.48140   0.48525   0.49688   0.50429   0.52811
 Alpha virt. eigenvalues --    0.53320   0.55982   0.57655   0.58780   0.62988
 Alpha virt. eigenvalues --    0.63231   0.65200   0.68500   0.70796   0.73432
 Alpha virt. eigenvalues --    0.74945   0.75890   0.77023   0.81502   0.82504
 Alpha virt. eigenvalues --    0.84032   0.84866   0.85187   0.87231   0.88878
 Alpha virt. eigenvalues --    0.89334   0.89380   0.89998   0.90529   0.91354
 Alpha virt. eigenvalues --    0.92564   0.93467   0.94851   0.95103   0.96059
 Alpha virt. eigenvalues --    0.97165   0.97754   0.99377   1.01702   1.03462
 Alpha virt. eigenvalues --    1.04608   1.06734   1.07713   1.08093   1.08678
 Alpha virt. eigenvalues --    1.09324   1.10989   1.11984   1.12983   1.13706
 Alpha virt. eigenvalues --    1.14748   1.15894   1.17252   1.18487   1.19679
 Alpha virt. eigenvalues --    1.20260   1.22057   1.22874   1.24567   1.24876
 Alpha virt. eigenvalues --    1.25365   1.25622   1.27007   1.27592   1.28043
 Alpha virt. eigenvalues --    1.28303   1.29406   1.29659   1.30719   1.31345
 Alpha virt. eigenvalues --    1.32096   1.32627   1.34417   1.35306   1.35531
 Alpha virt. eigenvalues --    1.36749   1.37795   1.38491   1.39445   1.42300
 Alpha virt. eigenvalues --    1.43267   1.44797   1.45607   1.47748   1.48248
 Alpha virt. eigenvalues --    1.49629   1.52612   1.54015   1.55582   1.56389
 Alpha virt. eigenvalues --    1.57596   1.58891   1.60881   1.63256   1.65279
 Alpha virt. eigenvalues --    1.66100   1.68155   1.68847   1.70987   1.72562
 Alpha virt. eigenvalues --    1.77385   1.78656   1.80634   1.80840   1.81970
 Alpha virt. eigenvalues --    1.82674   1.84213   1.86078   1.87961   1.88425
 Alpha virt. eigenvalues --    1.90786   1.91057   1.95443   2.01286   2.02122
 Alpha virt. eigenvalues --    2.05965   2.07124   2.11710   2.14110   2.16332
 Alpha virt. eigenvalues --    2.17687   2.18953   2.21098   2.23039   2.23679
 Alpha virt. eigenvalues --    2.24085   2.25074   2.25973   2.26542   2.28666
 Alpha virt. eigenvalues --    2.30029   2.31797   2.32988   2.34904   2.35723
 Alpha virt. eigenvalues --    2.36593   2.37067   2.40229   2.40995   2.42530
 Alpha virt. eigenvalues --    2.45043   2.46205   2.47398   2.48689   2.50612
 Alpha virt. eigenvalues --    2.52469   2.53808   2.54168   2.54905   2.57285
 Alpha virt. eigenvalues --    2.58559   2.61472   2.61880   2.62413   2.65956
 Alpha virt. eigenvalues --    2.66138   2.67580   2.68135   2.70206   2.71315
 Alpha virt. eigenvalues --    2.72374   2.74628   2.75594   2.79179   2.81436
 Alpha virt. eigenvalues --    2.83138   2.84337   2.85119   2.86173   2.86522
 Alpha virt. eigenvalues --    2.87288   2.89790   2.93220   2.93888   2.95397
 Alpha virt. eigenvalues --    2.96595   3.00779   3.02040   3.03207   3.07624
 Alpha virt. eigenvalues --    3.10089   3.13092   3.14261   3.15570   3.17773
 Alpha virt. eigenvalues --    3.23585   3.26942   3.29091   3.33242   3.38960
 Alpha virt. eigenvalues --    3.41965   3.45514   3.46551   3.51966   3.54301
 Alpha virt. eigenvalues --    3.56524   3.57435   3.60115   3.87059   3.93529
 Alpha virt. eigenvalues --    4.39595   4.54049   4.64617   4.64951   4.73039
 Alpha virt. eigenvalues --    4.77549   4.78408   4.80162   4.81549   4.81678
 Alpha virt. eigenvalues --    4.90651   4.92529   4.97962   5.06386   5.12026
 Alpha virt. eigenvalues --    5.20924   5.38687   5.70227
  Beta  occ. eigenvalues --  -20.43436 -20.43435 -20.35771 -20.35415 -11.14384
  Beta  occ. eigenvalues --  -11.14119 -11.13951 -11.13920 -11.13703 -11.13313
  Beta  occ. eigenvalues --  -11.12562 -11.12531 -11.12252 -11.11139 -11.09995
  Beta  occ. eigenvalues --  -11.09103 -11.08729 -11.08615  -1.25678  -1.23424
  Beta  occ. eigenvalues --   -1.15592  -1.15039  -0.99414  -0.96393  -0.90539
  Beta  occ. eigenvalues --   -0.87500  -0.84252  -0.81557  -0.80933  -0.78295
  Beta  occ. eigenvalues --   -0.74112  -0.73137  -0.63256  -0.62535  -0.59724
  Beta  occ. eigenvalues --   -0.56796  -0.53665  -0.52276  -0.51426  -0.49918
  Beta  occ. eigenvalues --   -0.49554  -0.49012  -0.48041  -0.47784  -0.47031
  Beta  occ. eigenvalues --   -0.44585  -0.44192  -0.43410  -0.42877  -0.42443
  Beta  occ. eigenvalues --   -0.41671  -0.41270  -0.40455  -0.38499  -0.37634
  Beta  occ. eigenvalues --   -0.36897  -0.36339  -0.36015  -0.34657  -0.32552
  Beta  occ. eigenvalues --   -0.30456  -0.28806  -0.24216  -0.24105  -0.21786
  Beta  occ. eigenvalues --   -0.17180  -0.16041
  Beta virt. eigenvalues --    0.21368   0.29557   0.31857   0.33115   0.36083
  Beta virt. eigenvalues --    0.37838   0.38329   0.39010   0.39222   0.40990
  Beta virt. eigenvalues --    0.41759   0.41879   0.42284   0.42959   0.43796
  Beta virt. eigenvalues --    0.43916   0.44314   0.45681   0.46832   0.47028
  Beta virt. eigenvalues --    0.47405   0.48371   0.48644   0.49739   0.50762
  Beta virt. eigenvalues --    0.53061   0.54051   0.57015   0.57970   0.59028
  Beta virt. eigenvalues --    0.63368   0.63840   0.65718   0.68992   0.70998
  Beta virt. eigenvalues --    0.73591   0.75375   0.76256   0.77234   0.81716
  Beta virt. eigenvalues --    0.82559   0.84442   0.84954   0.85428   0.87401
  Beta virt. eigenvalues --    0.88956   0.89392   0.89605   0.90099   0.90624
  Beta virt. eigenvalues --    0.91527   0.92696   0.93648   0.95100   0.95471
  Beta virt. eigenvalues --    0.96162   0.97381   0.97916   0.99599   1.01979
  Beta virt. eigenvalues --    1.03703   1.04850   1.06987   1.07977   1.08385
  Beta virt. eigenvalues --    1.08815   1.09637   1.11114   1.12229   1.13134
  Beta virt. eigenvalues --    1.13833   1.15039   1.16121   1.17536   1.18635
  Beta virt. eigenvalues --    1.20053   1.20688   1.22306   1.22970   1.24629
  Beta virt. eigenvalues --    1.25018   1.25443   1.25971   1.27072   1.27727
  Beta virt. eigenvalues --    1.28180   1.28582   1.29538   1.29969   1.30882
  Beta virt. eigenvalues --    1.31453   1.32142   1.32901   1.34538   1.35506
  Beta virt. eigenvalues --    1.35804   1.36940   1.38053   1.39369   1.39629
  Beta virt. eigenvalues --    1.42732   1.43412   1.45061   1.45973   1.48970
  Beta virt. eigenvalues --    1.49986   1.50297   1.54177   1.56001   1.56487
  Beta virt. eigenvalues --    1.56922   1.59168   1.59489   1.61488   1.63921
  Beta virt. eigenvalues --    1.65822   1.67002   1.68499   1.69062   1.71450
  Beta virt. eigenvalues --    1.73099   1.77658   1.79210   1.81007   1.81165
  Beta virt. eigenvalues --    1.82466   1.83148   1.84658   1.86553   1.88367
  Beta virt. eigenvalues --    1.88609   1.90895   1.91335   1.95552   2.01516
  Beta virt. eigenvalues --    2.02533   2.06372   2.07297   2.12026   2.14407
  Beta virt. eigenvalues --    2.16589   2.18184   2.19581   2.21434   2.23315
  Beta virt. eigenvalues --    2.24116   2.24765   2.25279   2.26098   2.28197
  Beta virt. eigenvalues --    2.29194   2.30875   2.32226   2.33833   2.35838
  Beta virt. eigenvalues --    2.36131   2.36920   2.37974   2.40413   2.41353
  Beta virt. eigenvalues --    2.43409   2.45523   2.46602   2.47643   2.48904
  Beta virt. eigenvalues --    2.51672   2.52642   2.54094   2.54659   2.55328
  Beta virt. eigenvalues --    2.57769   2.58814   2.61629   2.62058   2.62792
  Beta virt. eigenvalues --    2.66147   2.66377   2.67818   2.68546   2.70348
  Beta virt. eigenvalues --    2.71386   2.72714   2.75217   2.75935   2.79309
  Beta virt. eigenvalues --    2.81653   2.83322   2.84456   2.85264   2.86255
  Beta virt. eigenvalues --    2.86824   2.87390   2.89995   2.93449   2.93985
  Beta virt. eigenvalues --    2.95464   2.96862   3.00998   3.02558   3.03616
  Beta virt. eigenvalues --    3.09233   3.10480   3.13448   3.14580   3.15947
  Beta virt. eigenvalues --    3.18062   3.23787   3.27392   3.29388   3.33670
  Beta virt. eigenvalues --    3.39014   3.42339   3.45646   3.46701   3.52360
  Beta virt. eigenvalues --    3.54631   3.56944   3.57715   3.60382   3.87153
  Beta virt. eigenvalues --    3.93612   4.39944   4.54721   4.64692   4.65187
  Beta virt. eigenvalues --    4.73359   4.77617   4.78437   4.80187   4.81570
  Beta virt. eigenvalues --    4.81712   4.90742   4.92678   4.98021   5.06788
  Beta virt. eigenvalues --    5.12080   5.21121   5.39165   5.70530
          Condensed to atoms (all electrons):
               1          2          3          4          5          6
     1  C    5.153251   0.312302   0.430859  -0.072312  -0.089277   0.003181
     2  C    0.312302   5.161173  -0.032946  -0.013640   0.005110  -0.000043
     3  C    0.430859  -0.032946   4.469716   0.451665   0.397591  -0.047474
     4  O   -0.072312  -0.013640   0.451665   8.384916  -0.074420   0.000072
     5  C   -0.089277   0.005110   0.397591  -0.074420   4.920832   0.218275
     6  O    0.003181  -0.000043  -0.047474   0.000072   0.218275   8.444499
     7  C   -0.012799  -0.000442  -0.043987   0.004037   0.524199  -0.059685
     8  O    0.000001   0.000001   0.001402  -0.000008  -0.055495  -0.001722
     9  C   -0.022948   0.002495  -0.016708  -0.000127  -0.045421   0.001306
    10  O    0.003881  -0.000046  -0.000090  -0.000000   0.003692  -0.000010
    11  C    0.509821  -0.053798  -0.021125   0.004052  -0.013200   0.000037
    12  C   -0.049994  -0.011113   0.002124  -0.000039  -0.000537   0.000001
    13  H   -0.041076   0.387145   0.001266   0.000364  -0.000001   0.000000
    14  H   -0.042052   0.389104  -0.003394   0.017165   0.000693  -0.000005
    15  H   -0.040147   0.385112  -0.001478   0.000252  -0.000062   0.000000
    16  C   -0.000745  -0.000006  -0.005626  -0.013531  -0.042845   0.213329
    17  H   -0.000224   0.000009  -0.000316   0.014055  -0.007533  -0.034295
    18  H    0.000248   0.000001   0.000127   0.000293  -0.001905  -0.039991
    19  H    0.000005  -0.000000  -0.000018   0.000283   0.004968  -0.036993
    20  C    0.000108   0.000000  -0.000226   0.000001  -0.002149   0.000554
    21  H   -0.000056  -0.000000   0.000011   0.000000   0.002357   0.000070
    22  H   -0.000000   0.000000   0.000002  -0.000000   0.000050  -0.000011
    23  H    0.000011   0.000000   0.000003  -0.000000  -0.000358   0.000009
    24  H   -0.002203  -0.002016   0.000088  -0.000001  -0.000013   0.000000
    25  H    0.002951   0.000055   0.000008   0.000000  -0.000019   0.000000
    26  C   -0.000062  -0.001052   0.000148   0.000000  -0.000047  -0.000000
    27  H    0.000241  -0.000003   0.000022   0.000000  -0.000020   0.000000
    28  C   -0.000002  -0.000130   0.000000  -0.000000   0.000000   0.000000
    29  C    0.000564  -0.001284   0.000023   0.000000  -0.000003  -0.000000
    30  H   -0.000027   0.000256  -0.000000  -0.000000   0.000000   0.000000
    31  H   -0.000003   0.000168  -0.000000   0.000000   0.000000   0.000000
    32  C   -0.000023   0.000001  -0.000000   0.000000   0.000000  -0.000000
    33  H   -0.000000  -0.000000   0.000000  -0.000000   0.000000  -0.000000
    34  H    0.000001   0.000008  -0.000000  -0.000000   0.000000   0.000000
    35  H    0.000000  -0.000001   0.000000   0.000000  -0.000000  -0.000000
    36  H    0.000002  -0.000000   0.000000   0.000000  -0.000000  -0.000000
               7          8          9         10         11         12
     1  C   -0.012799   0.000001  -0.022948   0.003881   0.509821  -0.049994
     2  C   -0.000442   0.000001   0.002495  -0.000046  -0.053798  -0.011113
     3  C   -0.043987   0.001402  -0.016708  -0.000090  -0.021125   0.002124
     4  O    0.004037  -0.000008  -0.000127  -0.000000   0.004052  -0.000039
     5  C    0.524199  -0.055495  -0.045421   0.003692  -0.013200  -0.000537
     6  O   -0.059685  -0.001722   0.001306  -0.000010   0.000037   0.000001
     7  C    4.930186   0.215501   0.408744  -0.075936  -0.095170   0.004867
     8  O    0.215501   8.440598  -0.050050   0.000127   0.003303  -0.000041
     9  C    0.408744  -0.050050   4.445056   0.464256   0.420379  -0.043429
    10  O   -0.075936   0.000127   0.464256   8.390627  -0.086667  -0.007612
    11  C   -0.095170   0.003303   0.420379  -0.086667   5.277171   0.322996
    12  C    0.004867  -0.000041  -0.043429  -0.007612   0.322996   5.092328
    13  H    0.000010   0.000000  -0.000020   0.000000  -0.004096  -0.001165
    14  H   -0.000032   0.000000  -0.000024   0.000000   0.002651   0.000217
    15  H   -0.000007  -0.000000   0.000028   0.000000  -0.000540  -0.001450
    16  C   -0.000764   0.000364  -0.000173   0.000001   0.000097  -0.000000
    17  H   -0.000457   0.000006   0.000001  -0.000000   0.000011   0.000000
    18  H    0.002303  -0.000000   0.000022   0.000000  -0.000054  -0.000000
    19  H    0.000029  -0.000006   0.000001  -0.000000   0.000000   0.000000
    20  C   -0.044007   0.215993  -0.005140  -0.007968  -0.000700  -0.000003
    21  H   -0.002345  -0.039176   0.000094   0.000200   0.000239   0.000000
    22  H    0.005160  -0.036876  -0.000066   0.000173   0.000007  -0.000000
    23  H   -0.007043  -0.034631   0.000660   0.011940  -0.000241  -0.000001
    24  H    0.000040   0.000000   0.002665   0.000356  -0.044088   0.404010
    25  H    0.000231  -0.000003  -0.004187   0.011282  -0.047513   0.399167
    26  C   -0.000007   0.000000  -0.004290   0.000915  -0.064410   0.343373
    27  H    0.000104  -0.000001   0.001396   0.006111  -0.005604  -0.033112
    28  C    0.000000  -0.000000  -0.000008  -0.000000   0.000286  -0.010392
    29  C    0.000011  -0.000000   0.000350   0.000345  -0.004472  -0.038604
    30  H   -0.000000  -0.000000   0.000000   0.000000   0.000085   0.000382
    31  H   -0.000000   0.000000  -0.000002   0.000000   0.000001  -0.000354
    32  C    0.000000   0.000000  -0.000002  -0.000002  -0.000150   0.003454
    33  H   -0.000000   0.000000  -0.000002  -0.000001  -0.000012   0.000097
    34  H   -0.000000  -0.000000   0.000000  -0.000000   0.000032  -0.000070
    35  H   -0.000000   0.000000   0.000000  -0.000000  -0.000007  -0.000104
    36  H    0.000000   0.000000   0.000000  -0.000000  -0.000035   0.000212
              13         14         15         16         17         18
     1  C   -0.041076  -0.042052  -0.040147  -0.000745  -0.000224   0.000248
     2  C    0.387145   0.389104   0.385112  -0.000006   0.000009   0.000001
     3  C    0.001266  -0.003394  -0.001478  -0.005626  -0.000316   0.000127
     4  O    0.000364   0.017165   0.000252  -0.013531   0.014055   0.000293
     5  C   -0.000001   0.000693  -0.000062  -0.042845  -0.007533  -0.001905
     6  O    0.000000  -0.000005   0.000000   0.213329  -0.034295  -0.039991
     7  C    0.000010  -0.000032  -0.000007  -0.000764  -0.000457   0.002303
     8  O    0.000000   0.000000  -0.000000   0.000364   0.000006  -0.000000
     9  C   -0.000020  -0.000024   0.000028  -0.000173   0.000001   0.000022
    10  O    0.000000   0.000000   0.000000   0.000001  -0.000000   0.000000
    11  C   -0.004096   0.002651  -0.000540   0.000097   0.000011  -0.000054
    12  C   -0.001165   0.000217  -0.001450  -0.000000   0.000000  -0.000000
    13  H    0.563807  -0.021559  -0.036970   0.000000   0.000000   0.000000
    14  H   -0.021559   0.473267  -0.024518   0.000004   0.000010  -0.000001
    15  H   -0.036970  -0.024518   0.582444   0.000000  -0.000001  -0.000000
    16  C    0.000000   0.000004   0.000000   4.858601   0.389003   0.380100
    17  H    0.000000   0.000010  -0.000001   0.389003   0.499647  -0.039098
    18  H    0.000000  -0.000001  -0.000000   0.380100  -0.039098   0.605666
    19  H   -0.000000  -0.000000   0.000000   0.390364  -0.027358  -0.035145
    20  C    0.000000  -0.000000  -0.000000  -0.000082   0.000000   0.000014
    21  H   -0.000000  -0.000000   0.000000   0.000013   0.000001  -0.000002
    22  H   -0.000000   0.000000   0.000000   0.000002  -0.000000  -0.000001
    23  H    0.000000  -0.000000  -0.000000   0.000000   0.000000   0.000000
    24  H   -0.002658   0.000073   0.001129  -0.000000   0.000000  -0.000000
    25  H    0.000052   0.000001   0.000061  -0.000000  -0.000000  -0.000000
    26  C    0.003069  -0.000007  -0.000064   0.000000  -0.000000   0.000000
    27  H    0.000000   0.000001  -0.000000   0.000000   0.000000  -0.000000
    28  C   -0.001548   0.000006  -0.000031  -0.000000   0.000000   0.000000
    29  C    0.002031   0.000015  -0.000017   0.000000   0.000000  -0.000000
    30  H   -0.000644  -0.000002   0.000001  -0.000000   0.000000  -0.000000
    31  H   -0.000618  -0.000005   0.000248   0.000000  -0.000000  -0.000000
    32  C   -0.000021   0.000000  -0.000001  -0.000000  -0.000000   0.000000
    33  H    0.000000   0.000000  -0.000000  -0.000000  -0.000000   0.000000
    34  H   -0.000043  -0.000000   0.000000  -0.000000   0.000000  -0.000000
    35  H    0.000004   0.000000   0.000000  -0.000000  -0.000000   0.000000
    36  H    0.000147  -0.000000  -0.000002  -0.000000   0.000000   0.000000
              19         20         21         22         23         24
     1  C    0.000005   0.000108  -0.000056  -0.000000   0.000011  -0.002203
     2  C   -0.000000   0.000000  -0.000000   0.000000   0.000000  -0.002016
     3  C   -0.000018  -0.000226   0.000011   0.000002   0.000003   0.000088
     4  O    0.000283   0.000001   0.000000  -0.000000  -0.000000  -0.000001
     5  C    0.004968  -0.002149   0.002357   0.000050  -0.000358  -0.000013
     6  O   -0.036993   0.000554   0.000070  -0.000011   0.000009   0.000000
     7  C    0.000029  -0.044007  -0.002345   0.005160  -0.007043   0.000040
     8  O   -0.000006   0.215993  -0.039176  -0.036876  -0.034631   0.000000
     9  C    0.000001  -0.005140   0.000094  -0.000066   0.000660   0.002665
    10  O   -0.000000  -0.007968   0.000200   0.000173   0.011940   0.000356
    11  C    0.000000  -0.000700   0.000239   0.000007  -0.000241  -0.044088
    12  C    0.000000  -0.000003   0.000000  -0.000000  -0.000001   0.404010
    13  H   -0.000000   0.000000  -0.000000  -0.000000   0.000000  -0.002658
    14  H   -0.000000  -0.000000  -0.000000   0.000000  -0.000000   0.000073
    15  H    0.000000  -0.000000   0.000000   0.000000  -0.000000   0.001129
    16  C    0.390364  -0.000082   0.000013   0.000002   0.000000  -0.000000
    17  H   -0.027358   0.000000   0.000001  -0.000000   0.000000   0.000000
    18  H   -0.035145   0.000014  -0.000002  -0.000001   0.000000  -0.000000
    19  H    0.573537   0.000001  -0.000001  -0.000000  -0.000000  -0.000000
    20  C    0.000001   4.841839   0.381690   0.390927   0.389632   0.000000
    21  H   -0.000001   0.381690   0.600121  -0.033766  -0.040318   0.000000
    22  H   -0.000000   0.390927  -0.033766   0.572159  -0.029472   0.000000
    23  H   -0.000000   0.389632  -0.040318  -0.029472   0.517564  -0.000000
    24  H   -0.000000   0.000000   0.000000   0.000000  -0.000000   0.557495
    25  H   -0.000000  -0.000001  -0.000000   0.000000   0.000017  -0.024587
    26  C    0.000000   0.000001  -0.000000  -0.000000  -0.000001  -0.051580
    27  H    0.000000   0.000001  -0.000000  -0.000000  -0.000001   0.002993
    28  C    0.000000   0.000000  -0.000000  -0.000000   0.000000  -0.002657
    29  C    0.000000   0.000000  -0.000000  -0.000000  -0.000000   0.002467
    30  H   -0.000000  -0.000000   0.000000  -0.000000   0.000000   0.000043
    31  H   -0.000000  -0.000000   0.000000   0.000000  -0.000000   0.001701
    32  C    0.000000   0.000000  -0.000000   0.000000  -0.000000   0.000097
    33  H    0.000000  -0.000000   0.000000   0.000000  -0.000000   0.000009
    34  H   -0.000000  -0.000000  -0.000000   0.000000   0.000000   0.000003
    35  H    0.000000  -0.000000   0.000000   0.000000  -0.000000  -0.000003
    36  H    0.000000   0.000000  -0.000000  -0.000000  -0.000000  -0.000102
              25         26         27         28         29         30
     1  C    0.002951  -0.000062   0.000241  -0.000002   0.000564  -0.000027
     2  C    0.000055  -0.001052  -0.000003  -0.000130  -0.001284   0.000256
     3  C    0.000008   0.000148   0.000022   0.000000   0.000023  -0.000000
     4  O    0.000000   0.000000   0.000000  -0.000000   0.000000  -0.000000
     5  C   -0.000019  -0.000047  -0.000020   0.000000  -0.000003   0.000000
     6  O    0.000000  -0.000000   0.000000   0.000000  -0.000000   0.000000
     7  C    0.000231  -0.000007   0.000104   0.000000   0.000011  -0.000000
     8  O   -0.000003   0.000000  -0.000001  -0.000000  -0.000000  -0.000000
     9  C   -0.004187  -0.004290   0.001396  -0.000008   0.000350   0.000000
    10  O    0.011282   0.000915   0.006111  -0.000000   0.000345   0.000000
    11  C   -0.047513  -0.064410  -0.005604   0.000286  -0.004472   0.000085
    12  C    0.399167   0.343373  -0.033112  -0.010392  -0.038604   0.000382
    13  H    0.000052   0.003069   0.000000  -0.001548   0.002031  -0.000644
    14  H    0.000001  -0.000007   0.000001   0.000006   0.000015  -0.000002
    15  H    0.000061  -0.000064  -0.000000  -0.000031  -0.000017   0.000001
[...]
 0567,-0.00041812,0.00069328,0.00039120,0.00005289,0.00005300,0.0002921
 2,0.00001610,-0.00023010,-0.00051923,0.00096844,-0.00042429,-0.0006236
 6,0.00119749,0.00173996,0.00096369,-0.00001233,-0.00063203,-0.00090752
 ,0.00064585,-0.00077303,0.00040704,-0.00002683,0.00059397,-0.13494749,
 -0.00174065,-0.23434750,-0.01207903,0.00137165,-0.01625586,-0.00925796
 ,-0.00116181,-0.01144824,0.14946884,0.00297427,0.25182013,-0.00198070,
 0.00403700,0.00194393,0.00012290,0.00024768,0.00003026,0.00193789,0.00
 100576,-0.00084626,-0.00295429,-0.00443793,0.00063836,0.00300338,-0.00
 081473,-0.00140283,0.00107376,0.00146358,-0.00015100,-0.00384498,0.001
 49684,0.00168904,0.00108586,0.00109918,-0.00019544,0.00181606,0.004824
 33,0.00033816,-0.00404670,-0.00621204,0.00057879,0.00473839,-0.0037396
 9,-0.00054600,0.00590185,0.00749151,-0.00342296,0.00026272,-0.00005016
 ,0.00000077,-0.00053893,0.00072616,0.00023874,0.00000227,-0.00003770,-
 0.00020081,0.00011187,-0.00105500,-0.00003613,0.00053269,0.00006708,-0
 .00072524,0.00000103,0.00020775,0.00013656,-0.00010688,0.00024320,0.00
 000837,-0.00085601,-0.00016631,0.00033174,0.00022494,0.00003015,0.0000
 4215,0.00017272,-0.00000949,-0.00013006,-0.00030282,0.00054833,-0.0002
 3508,-0.00024568,0.00020020,0.00013179,-0.00122109,0.00007915,-0.00236
 094,-0.01865724,0.00188009,-0.02411051,-0.00266142,-0.00397600,0.00159
 593,0.00563505,0.00094960,0.00471524,-0.12518573,0.00149601,-0.0679866
 3,-0.00022305,0.00053853,0.00031401,0.00002055,0.00216552,0.00206309,0
 .55379330,0.00083184,-0.00040738,-0.00040444,0.00010673,-0.00016072,0.
 00018239,-0.00047398,-0.00067891,-0.00023627,0.00058767,0.00095753,-0.
 00000488,-0.00064182,0.00019328,0.00029039,0.00026460,-0.00006648,-0.0
 0014741,0.00015012,0.00005694,-0.00011642,0.00000131,-0.00028451,-0.00
 004277,0.00037619,0.00025550,-0.00003554,0.00013238,0.00000231,-0.0000
 9505,0.00055978,-0.00002849,0.00212536,0.00664346,0.00291731,-0.005235
 03,-0.00004274,0.00001997,-0.00015494,0.00002578,-0.00003271,-0.000041
 42,-0.00000139,0.00002098,0.00008346,-0.00005628,-0.00003637,0.0001366
 9,-0.00005853,0.00001350,0.00005933,-0.00001468,-0.00000556,-0.0000368
 4,0.00004079,-0.00000994,-0.00002175,0.00004691,0.00009198,-0.00008070
 ,-0.00001525,-0.00000275,0.00000507,0.00000370,-0.00002411,0.00000719,
 0.00000953,-0.00003404,0.00002719,0.00013025,0.00001761,0.00023984,-0.
 00096260,-0.00000960,-0.00074263,0.01355943,0.00156303,0.01950831,-0.0
 0178804,-0.00238432,0.00418479,-0.01358390,-0.00120896,-0.02400615,0.0
 0166369,-0.08389743,-0.01057240,-0.00070270,0.00091406,-0.00044175,0.0
 0124561,-0.00367068,-0.00421275,-0.01806576,0.59908858,-0.00711835,0.0
 1312879,0.00618043,0.00027729,0.00102901,-0.00002083,0.00643003,0.0039
 4492,-0.00212566,-0.00984662,-0.01486246,0.00202416,0.01012424,-0.0028
 6166,-0.00473515,0.00320012,0.00476039,-0.00039993,-0.01228173,0.00467
 368,0.00565591,0.00350726,0.00371846,-0.00067239,0.00496037,0.01482515
 ,0.00086797,-0.01276029,-0.01962903,0.00123327,0.01024858,-0.01102054,
 -0.00592776,-0.00085653,-0.00429128,0.00424080,0.00102449,-0.00025534,
 -0.00008921,-0.00174128,0.00242224,0.00077779,0.00017337,-0.00016456,-
 0.00051910,0.00041077,-0.00333459,-0.00020579,0.00174734,0.00019917,-0
 .00236827,0.00001220,0.00066704,0.00045660,-0.00036881,0.00078424,0.00
 003970,-0.00279035,-0.00061913,0.00116474,0.00072108,0.00009428,0.0001
 1970,0.00056626,-0.00002197,-0.00042884,-0.00097233,0.00180136,-0.0007
 6509,-0.00076788,0.00096130,0.00043786,0.00289042,-0.00025009,-0.00033
 691,-0.00871863,0.00238121,-0.00863719,0.00490321,0.00090121,0.0005177
 3,-0.01414675,-0.00449835,-0.02208215,-0.06843397,-0.01021407,-0.18173
 072,-0.00034920,0.00173738,0.00134772,0.00088480,-0.00290618,-0.001599
 91,-0.03719996,0.02003396,0.53873838,-0.00094822,0.00168504,0.00081328
 ,0.00003875,0.00012274,0.00000350,0.00084780,0.00050672,-0.00029035,-0
 .00127858,-0.00193397,0.00027321,0.00130126,-0.00036167,-0.00060558,0.
 00045466,0.00062459,-0.00006046,-0.00164849,0.00063491,0.00073354,0.00
 047889,0.00045051,-0.00007671,0.00067001,0.00194125,0.00012010,-0.0016
 3996,-0.00260890,0.00023345,0.00147842,-0.00150890,-0.00069839,0.00019
 224,0.00017586,0.00025552,0.00014347,-0.00001279,-0.00002029,-0.000232
 82,0.00031873,0.00009577,0.00002500,-0.00001510,-0.00005411,0.00004190
 ,-0.00044329,-0.00002537,0.00022550,0.00002599,-0.00030927,0.00000112,
 0.00009028,0.00006284,-0.00004020,0.00010227,0.00000440,-0.00037288,-0
 .00005508,0.00013337,0.00009683,0.00001087,0.00002016,0.00007762,-0.00
 000856,-0.00005750,-0.00012932,0.00023654,-0.00009867,0.00000223,0.000
 07052,0.00012616,0.00030350,-0.00009533,-0.00019598,0.00028509,-0.0014
 4698,-0.00113935,-0.00018169,0.00059342,0.00002351,-0.00188151,0.00048
 349,-0.00304735,0.00543886,-0.01577172,-0.01090777,-0.00019171,0.00041
 565,0.00015035,0.00045101,-0.00058609,-0.00091696,-0.07363561,0.059654
 91,0.04773332,0.07605602,0.00023735,-0.00054649,-0.00023340,0.00000131
 ,-0.00005719,0.00001238,-0.00023419,-0.00009411,0.00009400,0.00034480,
 0.00055585,-0.00005338,-0.00036172,0.00009512,0.00017489,-0.00017489,-
 0.00019780,0.00005621,0.00048842,-0.00020567,-0.00022126,-0.00015433,-
 0.00012181,0.00005243,-0.00021121,-0.00061719,-0.00008285,0.00047554,0
 .00080581,-0.00002105,-0.00043314,0.00048178,0.00018013,-0.00037132,0.
 00013541,-0.00003516,-0.00004923,0.00001706,-0.00003145,0.00007219,-0.
 00009735,-0.00004125,-0.00000214,0.00001302,0.00004043,-0.00001783,0.0
 0015084,-0.00003625,-0.00006669,-0.00001282,0.00008963,0.00000368,-0.0
 0002272,-0.00000401,0.00001440,-0.00003261,0.00000390,0.00011263,0.000
 02513,-0.00005087,-0.00002730,-0.00000440,-0.00000297,-0.00002551,0.00
 000448,0.00001756,0.00004003,-0.00007591,0.00003116,0.00007622,0.00003
 103,0.00012319,-0.00007853,-0.00000954,0.00006182,0.00109886,0.0002325
 1,0.00206452,-0.00004120,0.00047495,0.00012514,-0.00063902,0.00091327,
 -0.00071657,-0.00000598,-0.00137195,0.00001249,0.00004580,0.00054286,0
 .00024543,0.00036620,0.00005722,-0.00021386,0.05858851,-0.21232341,-0.
 12374770,-0.06580409,0.22614394,-0.00272261,0.00481146,0.00226185,0.00
 014106,0.00031987,0.00002719,0.00248664,0.00161817,-0.00078923,-0.0037
 5159,-0.00562391,0.00076961,0.00381047,-0.00104101,-0.00177675,0.00114
 675,0.00175712,-0.00012167,-0.00460236,0.00168441,0.00205799,0.0012826
 9,0.00143733,-0.00021825,0.00192735,0.00534022,0.00031175,-0.00467355,
 -0.00717637,0.00058487,0.00425880,-0.00413218,-0.00208140,0.00024197,0
 .00076766,0.00021495,0.00035837,-0.00000856,-0.00005569,-0.00065701,0.
 00089812,0.00026568,0.00006517,-0.00004245,-0.00016799,0.00015448,-0.0
 0121528,-0.00009579,0.00064836,0.00007011,-0.00087733,0.00000727,0.000
 24522,0.00017467,-0.00013874,0.00028809,0.00001742,-0.00103742,-0.0002
 4484,0.00044090,0.00027005,0.00003587,0.00004316,0.00020421,-0.0000020
 8,-0.00015816,-0.00035663,0.00066055,-0.00028795,-0.00010894,0.0003694
 6,0.00046287,0.00066379,-0.00022487,-0.00067153,0.00245467,-0.00157290
 ,0.00066396,-0.00057158,0.00088771,0.00081175,-0.00465715,0.00073612,-
 0.00439305,0.00933963,-0.02168261,-0.01652940,-0.00011542,0.00010789,0
 .00027080,0.00032351,-0.00152931,-0.00091694,0.04641697,-0.12246904,-0
 .14528304,-0.04761173,0.13572564,0.15765784,0.00385095,-0.00739838,-0.
 00337984,-0.00028218,-0.00051108,-0.00005252,-0.00363768,-0.00214747,0
 .00129940,0.00555933,0.00831945,-0.00114700,-0.00565961,0.00158374,0.0
 0264809,-0.00187142,-0.00270672,0.00025713,0.00700928,-0.00263624,-0.0
 0316350,-0.00198951,-0.00211637,0.00037679,-0.00307225,-0.00853078,-0.
 00049026,0.00731021,0.01119236,-0.00076575,-0.00666566,0.00648924,0.00
 261047,-0.00226615,-0.00135188,0.00116584,-0.00049983,0.00005511,-0.00
 002651,0.00098684,-0.00137602,-0.00041867,-0.00003815,0.00007222,0.000
 33665,-0.00022782,0.00191160,0.00008530,-0.00098996,-0.00011750,0.0013
 3782,-0.00000462,-0.00037492,-0.00025022,0.00020781,-0.00044674,-0.000
 01828,0.00157867,0.00035133,-0.00066006,-0.00040772,-0.00005370,-0.000
 06645,-0.00031870,0.00001100,0.00024227,0.00055032,-0.00101597,0.00043
 321,0.00048413,-0.00058531,-0.00032471,-0.00080940,0.00024192,0.001106
 93,-0.00062042,-0.00007224,-0.00235092,0.00018432,0.00079455,-0.001225
 03,0.00019088,0.00041173,0.00127190,-0.00008394,0.02004626,-0.01338165
 ,0.00038493,-0.00076822,0.00002135,-0.00017883,0.00015258,0.00015716,-
 0.05083822,-0.01918178,0.01370708,0.00049337,0.00873614,-0.00614178,0.
 05424426,-0.00628191,0.01161791,0.00545838,0.00033022,0.00084231,0.000
 01801,0.00577845,0.00352968,-0.00196839,-0.00878232,-0.01322870,0.0017
 9396,0.00898343,-0.00249289,-0.00419078,0.00284188,0.00421995,-0.00036
 196,-0.01094118,0.00410159,0.00496943,0.00309846,0.00334092,-0.0005794
 9,0.00463308,0.01314689,0.00078015,-0.01138554,-0.01737319,0.00121003,
 0.01023027,-0.00994066,-0.00480333,0.00091286,0.00095470,-0.00015842,0
 .00085291,-0.00012758,0.00000096,-0.00154962,0.00214047,0.00067051,0.0
 0010328,-0.00013024,-0.00050483,0.00036410,-0.00295715,-0.00016886,0.0
 0154997,0.00017781,-0.00209554,0.00001082,0.00058653,0.00040055,-0.000
 32879,0.00069485,0.00003410,-0.00247441,-0.00056175,0.00104219,0.00064
 044,0.00008508,0.00010448,0.00049574,-0.00001487,-0.00037928,-0.000859
 45,0.00158972,-0.00068214,-0.00065096,0.00087916,0.00050612,0.00162212
 ,-0.00040709,-0.00145465,0.00029444,0.00003534,-0.00027736,0.00025094,
 -0.00032868,0.00134688,-0.00025791,0.00061700,-0.00072116,0.00372080,0
 .00215138,-0.00062641,-0.00030013,0.00064556,0.00048057,0.00010882,0.0
 0011637,0.00015464,-0.02088586,-0.24524814,0.11348450,-0.00364924,-0.0
 1952276,0.01430937,0.02168225,0.26402529,0.00660733,-0.01264604,-0.005
 88987,-0.00043733,-0.00087733,-0.00009247,-0.00614547,-0.00365223,0.00
 225873,0.00945842,0.01421591,-0.00199364,-0.00969164,0.00271056,0.0045
 1215,-0.00319441,-0.00462174,0.00042638,0.01198475,-0.00453159,-0.0054
 5327,-0.00341578,-0.00357379,0.00065021,-0.00522291,-0.01459449,-0.000
 80286,0.01255560,0.01913205,-0.00130721,-0.01129061,0.01095592,0.00459
 270,-0.00286973,-0.00131991,0.00167723,-0.00089428,0.00015570,0.000031
 59,0.00168567,-0.00234677,-0.00072128,-0.00009147,0.00012512,0.0005405
 3,-0.00038023,0.00326355,0.00017067,-0.00169009,-0.00019803,0.00229278
 ,-0.00000957,-0.00064876,-0.00043898,0.00034781,-0.00076231,-0.0000338
 0,0.00270840,0.00057568,-0.00110989,-0.00070068,-0.00009155,-0.0001194
 5,-0.00054783,0.00002475,0.00041536,0.00094444,-0.00173918,0.00073936,
 0.00087858,-0.00097749,-0.00056044,-0.00155959,0.00039262,0.00162695,-
 0.00029278,-0.00076430,-0.00257086,-0.00050018,0.00084197,-0.00131110,
 0.00045296,0.00143163,0.00151579,-0.00146463,0.02429195,-0.01490385,0.
 00022083,-0.00161645,-0.00025906,-0.00020873,-0.00011505,0.00040274,0.
 01501759,0.11646869,-0.12095621,-0.00271675,-0.01799534,0.01164858,-0.
 01085143,-0.12904396,0.12964157,0.00529677,-0.00990679,-0.00464896,-0.
 00022557,-0.00075393,-0.00000425,-0.00479063,-0.00284700,0.00167877,0.
 00733127,0.01112603,-0.00154609,-0.00755658,0.00211988,0.00352261,-0.0
 0252573,-0.00360066,0.00034451,0.00934067,-0.00358002,-0.00427699,-0.0
 0270008,-0.00270513,0.00050658,-0.00389509,-0.01133138,-0.00066009,0.0
 0969618,0.01494878,-0.00100708,-0.00829146,0.00849340,0.00416381,-0.00
 008181,0.00107265,-0.00072947,-0.00075495,0.00015981,0.00003179,0.0013
 2533,-0.00182900,-0.00057204,-0.00011336,0.00012336,0.00039504,-0.0002
 8576,0.00254694,0.00013153,-0.00131079,-0.00015377,0.00178645,-0.00000
 620,-0.00051005,-0.00034505,0.00026076,-0.00059268,-0.00002465,0.00212
 378,0.00040761,-0.00083371,-0.00055081,-0.00007039,-0.00010213,-0.0004
 3410,0.00003013,0.00032682,0.00074330,-0.00136296,0.00057497,0.0006111
 0,-0.00080751,-0.00046453,-0.00185023,0.00024123,0.00066122,-0.0010184
 8,-0.00172729,-0.00141254,-0.00124460,-0.00062124,-0.00044319,0.000858
 25,0.00080274,0.00121874,-0.01970543,0.00128136,0.00162550,0.00012034,
 -0.00049410,0.00007234,0.00039205,0.00040852,-0.00026820,-0.29376541,-
 0.03020222,0.06572940,-0.00723750,-0.00221864,0.00113580,-0.00260434,0
 .00004394,0.00117353,0.32231287,-0.00029060,0.00044502,0.00020594,0.00
 001240,0.00004871,-0.00001071,0.00025621,0.00014042,-0.00005428,-0.000
 35938,-0.00052281,0.00006051,0.00034914,-0.00009893,-0.00016849,0.0001
 0894,0.00016299,-0.00001140,-0.00042792,0.00015693,0.00018037,0.000120
 70,0.00012946,-0.00001376,0.00017963,0.00051619,0.00004275,-0.00044100
 ,-0.00069011,0.00006571,0.00030952,-0.00045521,-0.00026213,-0.00018249
 ,-0.00004221,0.00038421,0.00003211,-0.00000179,0.00001986,-0.00005584,
 0.00008238,0.00002676,-0.00000227,-0.00000365,-0.00003153,0.00001349,-
 0.00011381,-0.00000853,0.00006106,0.00000657,-0.00008040,0.00000063,0.
 00002193,0.00001597,-0.00001310,0.00002706,0.00000169,-0.00009374,-0.0
 0001857,0.00003740,0.00002424,0.00000242,0.00000427,0.00001926,-0.0000
 0051,-0.00001467,-0.00003269,0.00006085,-0.00002565,-0.00003419,0.0000
 0003,0.00005611,0.00009730,-0.00005621,0.00001073,0.00063524,-0.000105
 95,0.00016766,0.00036800,0.00057837,-0.00010468,-0.00066892,-0.0000338
 1,0.00023152,0.00205676,0.00045100,0.00047042,-0.00019389,-0.00000785,
 0.00008068,0.00016841,-0.00003167,0.00005013,-0.03034373,-0.05606731,0
 .00565931,0.02615125,0.00470182,-0.00561730,-0.03028579,-0.00331059,0.
 00777188,0.03237822,0.05389648,0.00288437,-0.00541150,-0.00249493,-0.0
 0014046,-0.00042003,0.00000485,-0.00262490,-0.00161347,0.00088710,0.00
 403094,0.00609347,-0.00082383,-0.00415414,0.00116329,0.00193926,-0.001
 32400,-0.00195828,0.00017920,0.00505322,-0.00190439,-0.00232902,-0.001
 44294,-0.00152832,0.00028516,-0.00208327,-0.00608457,-0.00033709,0.005
 25716,0.00806034,-0.00048569,-0.00431151,0.00451987,0.00236657,0.00045
 505,0.00192253,-0.00105599,-0.00040064,0.00011102,0.00000240,0.0007074
 2,-0.00099626,-0.00032047,-0.00005819,0.00006558,0.00022386,-0.0001716
 7,0.00137434,0.00006858,-0.00071782,-0.00008331,0.00097058,-0.00000398
 ,-0.00027106,-0.00018178,0.00015292,-0.00032266,-0.00001416,0.00114574
 ,0.00025743,-0.00048221,-0.00029556,-0.00003918,-0.00004792,-0.0002323
 4,0.00000890,0.00017625,0.00039960,-0.00074027,0.00031470,0.00037381,-
 0.00047837,-0.00013051,-0.00130276,0.00018312,0.00008272,-0.00182365,-
 0.00157513,-0.00191668,-0.00097811,-0.00010240,-0.00002817,-0.00023785
 ,0.00097389,0.00161827,-0.03082324,-0.00297218,0.00680584,0.00022637,-
 0.00020958,-0.00011964,0.00017620,0.00046218,0.00014029,0.06222053,0.0
 0530511,-0.06599097,0.01831905,0.00436933,-0.00475974,0.01771809,0.001
 05942,-0.00439717,-0.06676725,-0.00890570,0.07026599,0.00223443,-0.004
 15830,-0.00203638,0.00004814,-0.00046456,0.00024247,-0.00193620,-0.001
 04189,0.00071826,0.00293468,0.00461624,-0.00061698,-0.00311106,0.00084
 644,0.00144850,-0.00117677,-0.00152370,0.00020720,0.00397182,-0.001545
 65,-0.00183280,-0.00120453,-0.00100646,0.00024372,-0.00172673,-0.00491
 991,-0.00031284,0.00408346,0.00643676,-0.00043557,-0.00365050,0.003871
 45,0.00173383,-0.00071648,-0.00042043,0.00038270,-0.00053935,0.0001525
 7,-0.00017123,0.00051160,-0.00074706,-0.00028987,0.00000200,0.00007151
 ,0.00019273,-0.00010232,0.00110661,0.00000775,-0.00054263,-0.00007026,
 0.00074514,0.00000168,-0.00021656,-0.00013554,0.00009589,-0.00025001,-
 0.00000168,0.00091004,0.00011442,-0.00030467,-0.00023790,-0.00002978,-
 0.00005401,-0.00019121,0.00002855,0.00013958,0.00032290,-0.00058144,0.
 00024027,0.00044570,-0.00039010,0.00007294,-0.00062571,0.00013430,0.00
 043443,0.00085762,-0.00023800,0.00178217,-0.00012206,0.00060306,-0.000
 53796,-0.28754315,-0.03003282,0.07278994,-0.00795382,0.00341277,0.0019
 0237,-0.00226350,-0.00011885,-0.00012430,-0.01699387,-0.00263848,0.007
 65174,0.00062756,-0.00024302,-0.00089895,0.00031495,0.00021486,-0.0001
 9153,0.00003111,-0.00020189,0.00014020,0.00053624,0.00008305,0.0007737
 8,0.31270796,-0.00553138,0.01029527,0.00479865,0.00046215,0.00070607,0
 .00019879,0.00507081,0.00317728,-0.00177496,-0.00782215,-0.01170349,0.
 00164283,0.00798326,-0.00226112,-0.00370879,0.00248151,0.00374525,-0.0
 0028639,-0.00970881,0.00362662,0.00441699,0.00273967,0.00299056,-0.000
 50168,0.00415112,0.01165769,0.00064108,-0.01008310,-0.01543407,0.00111
 415,0.00899839,-0.00894847,-0.00419322,0.00119519,0.00097040,-0.000817
 83,0.00064441,-0.00014608,-0.00017883,-0.00138989,0.00192367,0.0005562
 1,0.00008230,-0.00010726,-0.00044022,0.00032677,-0.00261274,-0.0001905
 3,0.00138008,0.00015436,-0.00186864,0.00001256,0.00052591,0.00036788,-
 0.00029419,0.00061775,0.00003547,-0.00219193,-0.00049960,0.00092307,0.
 00056852,0.00007435,0.00009210,0.00043923,-0.00000894,-0.00033597,-0.0
 0076288,0.00140977,-0.00060424,-0.00069470,0.00093562,0.00041040,0.001
 45664,-0.00033104,-0.00116221,0.00035064,-0.00179507,-0.00357685,-0.00
 017519,-0.00205299,0.00187071,-0.02723577,-0.05066796,0.00928083,0.028
 98081,0.00058947,-0.00956981,-0.03068944,-0.00254368,0.00881014,0.0009
 3866,-0.00098966,0.00014430,0.00040823,0.00046926,0.00146937,0.0000061
 8,-0.00006839,0.00051232,-0.00037438,0.00014577,-0.00024166,-0.0008698
 4,0.00013239,-0.00031313,0.02914655,0.05602312,-0.00419106,0.00792909,
 0.00373786,0.00016798,0.00047194,0.00017007,0.00387427,0.00244201,-0.0
 0138441,-0.00601962,-0.00904611,0.00127853,0.00616590,-0.00174406,-0.0
 0286474,0.00193885,0.00289773,-0.00023169,-0.00751012,0.00285140,0.003
 44416,0.00211636,0.00229119,-0.00039427,0.00309196,0.00901157,0.000485
 14,-0.00780345,-0.01194645,0.00085918,0.00705663,-0.00653661,-0.003076
 03,0.00060321,0.00050014,-0.00052547,0.00059155,-0.00001591,-0.0002338
 2,-0.00111488,0.00149735,0.00045505,0.00018269,-0.00007055,-0.00024947
 ,0.00024890,-0.00202613,-0.00014034,0.00106444,0.00012048,-0.00144495,
 0.00000860,0.00040835,0.00028380,-0.00022367,0.00047756,0.00002620,-0.
 00170027,-0.00037860,0.00071097,0.00044077,0.00005808,0.00007325,0.000
 34200,-0.00001042,-0.00026125,-0.00059192,0.00109294,-0.00046741,-0.00
 025599,0.00068969,0.00060622,0.00120987,-0.00019720,-0.00087233,-0.000
 45178,-0.00109546,-0.00328995,-0.00011474,-0.00148026,0.00151354,0.074
 83319,0.01047193,-0.07602140,0.02064292,0.00014859,-0.00567688,0.01624
 189,0.00218530,-0.00524915,-0.02673389,-0.00388241,0.01059540,0.001097
 82,0.00044041,0.00107234,-0.00026893,0.00000711,0.00049807,-0.00006091
 ,0.00019231,-0.00022191,-0.00097316,-0.00023465,-0.00041566,-0.0839054
 2,-0.00752036,0.07721135\\0.00000664,-0.00014887,-0.00002659,-0.000008
 67,-0.00000512,-0.00000033,-0.00001447,0.00000717,0.00001697,0.0000248
 6,0.00005694,-0.00000998,-0.00009676,-0.00005607,0.00002964,-0.0000119
 8,-0.00002858,-0.00000140,0.00011940,0.00003622,-0.00003997,-0.0000284
 9,-0.00001181,0.00000705,-0.00005736,-0.00013805,-0.00001323,0.0000975
 8,0.00015394,-0.00000324,-0.00003699,0.00014827,0.00003256,0.00000605,
 -0.00000985,0.00000111,-0.00000069,0.00000576,-0.00000257,0.00001030,-
 0.00001088,-0.00000196,0.00000739,0.00000103,-0.00000097,-0.00000796,0
 .00001864,0.00000288,-0.00000296,-0.00000148,0.00001170,0.00000095,-0.
 00000520,-0.00000414,0.00000021,-0.00000023,0.00000118,0.00001807,0.00
 000026,-0.00000435,-0.00000392,-0.00000049,-0.00000012,-0.00000374,0.0
 0000178,0.00000341,0.00000717,-0.00001018,0.00000323,0.00000350,-0.000
 00790,0.00000154,-0.00000095,-0.00000448,0.00001498,-0.00000525,-0.000
 00561,-0.00002552,0.00000302,-0.00000635,0.00000208,0.00001949,0.00000
 987,-0.00000728,-0.00004570,0.00002341,0.00002383,-0.00000412,-0.00000
 422,0.00000020,-0.00000154,-0.00000324,-0.00000011,0.00001050,0.000000
 61,-0.00000731,0.00000166,-0.00000163,-0.00000357,-0.00000195,-0.00000
 028,0.00000066,-0.00000230,-0.00000061,0.00000229,-0.00000100,-0.00000
 278,-0.00000268\\\@


 I LOVE MANKIND - IT'S PEOPLE I CAN'T STAND.
     -- LINUS OF PEANUTS
 Job cpu time:       1 days 22 hours 57 minutes 36.8 seconds.
 Elapsed time:       0 days 11 hours 54 minutes 58.0 seconds.
 File lengths (MBytes):  RWF= 116404 Int=      0 D2E=      0 Chk=     20 Scr=      8
 Normal termination of Gaussian 16 at Fri Nov 19 12:54:16 2021.
