 Entering Gaussian System, Link 0=g16
 Initial command:
 /gpfs/loomis/apps/avx/software/Gaussian/16-C.01_AVX/g16/l1.exe "/home/jl3566/scratch60/g16/Gau-208086.inp" -scrdir="/home/jl3566/scratch60/g16/"
 Entering Link 1 = /gpfs/loomis/apps/avx/software/Gaussian/16-C.01_AVX/g16/l1.exe PID=    208087.
  
 Copyright (c) 1988-2019, Gaussian, Inc.  All Rights Reserved.
  
 This is part of the Gaussian(R) 16 program.  It is based on
 the Gaussian(R) 09 system (copyright 2009, Gaussian, Inc.),
 the Gaussian(R) 03 system (copyright 2003, Gaussian, Inc.),
 the Gaussian(R) 98 system (copyright 1998, Gaussian, Inc.),
 the Gaussian(R) 94 system (copyright 1995, Gaussian, Inc.),
 the Gaussian 92(TM) system (copyright 1992, Gaussian, Inc.),
 the Gaussian 90(TM) system (copyright 1990, Gaussian, Inc.),
 the Gaussian 88(TM) system (copyright 1988, Gaussian, Inc.),
 the Gaussian 86(TM) system (copyright 1986, Carnegie Mellon
 University), and the Gaussian 82(TM) system (copyright 1983,
 Carnegie Mellon University). Gaussian is a federally registered
 trademark of Gaussian, Inc.
  
 This software contains proprietary and confidential information,
 including trade secrets, belonging to Gaussian, Inc.
  
 This software is provided under written license and may be
 used, copied, transmitted, or stored only in accord with that
 written license.
  
 The following legend is applicable only to US Government
 contracts under FAR:
  
                    RESTRICTED RIGHTS LEGEND
  
 Use, reproduction and disclosure by the US Government is
 subject to restrictions as set forth in subparagraphs (a)
 and (c) of the Commercial Computer Software - Restricted
 Rights clause in FAR 52.227-19.
  
 Gaussian, Inc.
 340 Quinnipiac St., Bldg. 40, Wallingford CT 06492
  
  
 ---------------------------------------------------------------
 Warning -- This program may not be used in any manner that
 competes with the business of Gaussian, Inc. or will provide
 assistance to any competitor of Gaussian, Inc.  The licensee
 of this program is prohibited from giving any competitor of
 Gaussian, Inc. access to this program.  By using this program,
 the user acknowledges that Gaussian, Inc. is engaged in the
 business of creating and licensing software in the field of
 computational chemistry and represents and warrants to the
 licensee that it is not a competitor of Gaussian, Inc. and that
 it will not use this program in any manner prohibited above.
 ---------------------------------------------------------------
  

 Cite this work as:
 Gaussian 16, Revision C.01,
 M. J. Frisch, G. W. Trucks, H. B. Schlegel, G. E. Scuseria, 
 M. A. Robb, J. R. Cheeseman, G. Scalmani, V. Barone, 
 G. A. Petersson, H. Nakatsuji, X. Li, M. Caricato, A. V. Marenich, 
 J. Bloino, B. G. Janesko, R. Gomperts, B. Mennucci, H. P. Hratchian, 
 J. V. Ortiz, A. F. Izmaylov, J. L. Sonnenberg, D. Williams-Young, 
 F. Ding, F. Lipparini, F. Egidi, J. Goings, B. Peng, A. Petrone, 
 T. Henderson, D. Ranasinghe, V. G. Zakrzewski, J. Gao, N. Rega, 
 G. Zheng, W. Liang, M. Hada, M. Ehara, K. Toyota, R. Fukuda, 
 J. Hasegawa, M. Ishida, T. Nakajima, Y. Honda, O. Kitao, H. Nakai, 
 T. Vreven, K. Throssell, J. A. Montgomery, Jr., J. E. Peralta, 
 F. Ogliaro, M. J. Bearpark, J. J. Heyd, E. N. Brothers, K. N. Kudin, 
 V. N. Staroverov, T. A. Keith, R. Kobayashi, J. Normand, 
 K. Raghavachari, A. P. Rendell, J. C. Burant, S. S. Iyengar, 
 J. Tomasi, M. Cossi, J. M. Millam, M. Klene, C. Adamo, R. Cammi, 
 J. W. Ochterski, R. L. Martin, K. Morokuma, O. Farkas, 
 J. B. Foresman, and D. J. Fox, Gaussian, Inc., Wallingford CT, 2019.
 
 ******************************************
 Gaussian 16:  ES64L-G16RevC.01  3-Jul-2019
                12-Nov-2021 
 ******************************************
 %chk=Q1H-opt2try1_opt-3.try2.chk
 %nproc=4
 Will use up to    4 processors via shared memory.
 %mem=4GB
 ----------------------------------------------------------------------
 # MP2/6-31G* Geom=(AllCheck,ModRedundant) Freq NoSymm IOp(7/33=1) SCF=
 Tight Guess=Read
 ----------------------------------------------------------------------
 1/10=4,18=120,29=7,30=1,38=1/1,3;
 2/12=2,15=1,40=1/2;
 3/5=1,6=6,7=1,11=9,14=-4,25=1,30=1,71=2,116=-2,140=1/1,2,3;
 4/5=1/1;
 5/5=2,32=2,38=6,98=1/2;
 8/6=3,8=1,10=2,19=11,30=-1/1;
 9/15=3,16=-3/6;
 11/6=1,8=1,15=11,17=12,24=-1,27=1,28=-2,29=300,31=1,32=6,42=3/1,2,10;
 10/6=2,21=1,31=1/2;
 8/6=4,8=1,10=2,19=11,30=-1/11,4;
 10/5=1,20=4,31=1/2;
 11/12=2,14=11,16=1,17=2,28=-2,31=1,42=3,76=2/2,10,12;
 6/7=2,8=2,9=2,10=2/1;
 7/8=1,10=1,12=2,25=1,30=1,33=1,44=2/1,2,3,16;
 1/10=4,30=1/3;
 99//99;
 Structure from the checkpoint file:  "Q1H-opt2try1_opt-3.try2.chk"
 --------------------------------------------------
 <qmtool> simtype="Geometry optimization" </qmtool>
 --------------------------------------------------
 Charge = -1 Multiplicity = 2
 Redundant internal coordinates found in file.  (old form).
 C,0,0.244321593,-1.5184589269,0.6467906721
 C,0,-0.2697660511,-2.8960391261,0.9714984588
 C,0,1.6251266816,-1.4628599823,0.1841087966
 O,0,2.3551802489,-2.4995962864,0.0687766236
 C,0,2.1326981244,-0.1328900009,-0.1247815937
 O,0,3.4573559293,0.0214708927,-0.4952884508
 C,0,1.3532666657,0.9970341091,-0.0216468494
 O,0,1.8657583786,2.2248578188,-0.4034756394
 C,0,-0.0113062029,0.9417168612,0.4762344623
 O,0,-0.6927015481,2.000305789,0.6370684988
 C,0,-0.5363838416,-0.3859102679,0.778624615
 C,0,-1.9747663369,-0.428528266,1.2389042886
 H,0,-1.0007795664,-3.2490005648,0.233708399
 H,0,0.5826725183,-3.5783376112,0.9599143791
 H,0,-0.7537276473,-2.9325097933,1.9551519653
 C,0,3.7624829306,-0.6593071459,-1.7161923279
 H,0,3.5434563317,-1.7233763789,-1.6202844121
 H,0,3.1952795069,-0.2207395718,-2.5483128987
 H,0,4.8303592388,-0.4994814728,-1.888932776
 C,0,2.162461984,3.0444687933,0.7265544617
 H,0,2.926241051,2.5690551972,1.3550614533
 H,0,2.5568774009,3.9829685517,0.32791675
 H,0,1.2592742622,3.2401188359,1.3106747276
 H,0,-2.0892130476,-1.1732901622,2.0377348046
 H,0,-2.2204191426,0.5497706599,1.6589939001
 C,0,-2.9085222502,-0.780525394,0.1107143886
 H,0,-2.8909166684,-1.8286688628,-0.1947785092
 C,0,-3.8438329819,1.5278249699,-0.2899067999
 C,0,-3.727053117,0.050713594,-0.5634137972
 H,0,-4.7441754146,1.7527965458,0.2986562556
 H,0,-2.9612279053,1.912276722,0.2247419353
 C,0,-4.6102801143,-0.4718666782,-1.6662650268
 H,0,-4.4962187623,-1.552786563,-1.7939364409
 H,0,-5.6679215138,-0.2606147846,-1.4582704603
 H,0,-4.3736405821,0.0130444394,-2.6219262967
 H,0,-3.9406431517,2.07315906,-1.2364545566
 Recover connectivity data from disk.
 The following ModRedundant input section has been read:
 B    *       *    K                                                           
 In this task builder options are not available,
 so the previous line wont be used.
 A    *       *       *    K                                                   
 In this task builder options are not available,
 so the previous line wont be used.
 L    *       *       *    K                                                   
 In this task builder options are not available,
 so the previous line wont be used.
 D    *       *       *       *    K                                           
 B       1       2 A                                                           
 B       1       3 A                                                           
 B       1      11 A                                                           
 B       2      13 A                                                           
 B       2      14 A                                                           
 B       2      15 A                                                           
 B       3       4 A                                                           
 B       3       5 A                                                           
 B       5       6 A                                                           
 B       5       7 A                                                           
 B       6      16 A                                                           
 B       7       8 A                                                           
 B       7       9 A                                                           
 B       8      20 A                                                           
 B       9      10 A                                                           
 B       9      11 A                                                           
 B      11      12 A                                                           
 B      12      24 A                                                           
 B      12      25 A                                                           
 B      12      26 A                                                           
 B      16      17 A                                                           
 B      16      18 A                                                           
 B      16      19 A                                                           
 B      20      21 A                                                           
 B      20      22 A                                                           
 B      20      23 A                                                           
 B      26      27 A                                                           
 B      26      29 A                                                           
 B      28      29 A                                                           
 B      28      30 A                                                           
 B      28      31 A                                                           
 B      28      36 A                                                           
 B      29      32 A                                                           
 B      32      33 A                                                           
 B      32      34 A                                                           
 B      32      35 A                                                           
 A       1       2      13 A                                                   
 A       1       2      14 A                                                   
 A       1       2      15 A                                                   
 A       1       3       4 A                                                   
 A       1       3       5 A                                                   
 A       1      11       9 A                                                   
 A       1      11      12 A                                                   
 A       2       1       3 A                                                   
 A       2       1      11 A                                                   
 A       3       1      11 A                                                   
 A       3       5       6 A                                                   
 A       3       5       7 A                                                   
 A       4       3       5 A                                                   
 A       5       6      16 A                                                   
 A       5       7       8 A                                                   
 A       5       7       9 A                                                   
 A       6       5       7 A                                                   
 A       6      16      17 A                                                   
 A       6      16      18 A                                                   
 A       6      16      19 A                                                   
 A       7       8      20 A                                                   
 A       7       9      10 A                                                   
 A       7       9      11 A                                                   
 A       8       7       9 A                                                   
 A       8      20      21 A                                                   
 A       8      20      22 A                                                   
 A       8      20      23 A                                                   
 A       9      11      12 A                                                   
 A      10       9      11 A                                                   
 A      11      12      24 A                                                   
 A      11      12      25 A                                                   
 A      11      12      26 A                                                   
 A      12      26      27 A                                                   
 A      12      26      29 A                                                   
 A      13       2      14 A                                                   
 A      13       2      15 A                                                   
 A      14       2      15 A                                                   
 A      17      16      18 A                                                   
 A      17      16      19 A                                                   
 A      18      16      19 A                                                   
 A      21      20      22 A                                                   
 A      21      20      23 A                                                   
 A      22      20      23 A                                                   
 A      24      12      25 A                                                   
 A      24      12      26 A                                                   
 A      25      12      26 A                                                   
 A      26      29      28 A                                                   
 A      26      29      32 A                                                   
 A      27      26      29 A                                                   
 A      28      29      32 A                                                   
 A      29      28      30 A                                                   
 A      29      28      31 A                                                   
 A      29      28      36 A                                                   
 A      29      32      33 A                                                   
 A      29      32      34 A                                                   
 A      29      32      35 A                                                   
 A      30      28      31 A                                                   
 A      30      28      36 A                                                   
 A      31      28      36 A                                                   
 A      33      32      34 A                                                   
 A      33      32      35 A                                                   
 A      34      32      35 A                                                   
 D       3       1       2      13 A                                           
 D       3       1       2      14 A                                           
 D       3       1       2      15 A                                           
 D      11       1       2      13 A                                           
 D      11       1       2      14 A                                           
 D      11       1       2      15 A                                           
 D       2       1       3       4 A                                           
 D       2       1       3       5 A                                           
 D      11       1       3       4 A                                           
 D      11       1       3       5 A                                           
 D       2       1      11       9 A                                           
 D       2       1      11      12 A                                           
 D       3       1      11       9 A                                           
 D       3       1      11      12 A                                           
 D       1       3       5       7 A                                           
 D       1       3       5       6 A                                           
 D       4       3       5       7 A                                           
 D       4       3       5       6 A                                           
 D       3       5       6      16 A                                           
 D       7       5       6      16 A                                           
 D       3       5       7       8 A                                           
 D       3       5       7       9 A                                           
 D       6       5       7       8 A                                           
 D       6       5       7       9 A                                           
 D       5       6      16      17 A                                           
 D       5       6      16      18 A                                           
 D       5       6      16      19 A                                           
 D       5       7       8      20 A                                           
 D       9       7       8      20 A                                           
 D       5       7       9      10 A                                           
 D       5       7       9      11 A                                           
 D       8       7       9      10 A                                           
 D       8       7       9      11 A                                           
 D       7       8      20      21 A                                           
 D       7       8      20      22 A                                           
 D       7       8      20      23 A                                           
 D       7       9      11       1 A                                           
 D       7       9      11      12 A                                           
 D      10       9      11       1 A                                           
 D      10       9      11      12 A                                           
 D       1      11      12      24 A                                           
 D       1      11      12      25 A                                           
 D       1      11      12      26 A                                           
 D       9      11      12      24 A                                           
 D       9      11      12      25 A                                           
 D       9      11      12      26 A                                           
 D      11      12      26      29 A                                           
 D      11      12      26      27 A                                           
 D      24      12      26      29 A                                           
 D      24      12      26      27 A                                           
 D      25      12      26      29 A                                           
 D      25      12      26      27 A                                           
 D      12      26      29      28 A                                           
 D      12      26      29      32 A                                           
 D      27      26      29      28 A                                           
 D      27      26      29      32 A                                           
 D      30      28      29      26 A                                           
 D      30      28      29      32 A                                           
 D      31      28      29      26 A                                           
 D      31      28      29      32 A                                           
 D      36      28      29      26 A                                           
 D      36      28      29      32 A                                           
 D      26      29      32      33 A                                           
 D      26      29      32      34 A                                           
 D      26      29      32      35 A                                           
 D      28      29      32      33 A                                           
 D      28      29      32      34 A                                           
 D      28      29      32      35 A                                           
 

 GradGradGradGradGradGradGradGradGradGradGradGradGradGradGradGradGradGrad
 Berny optimization.
 Initialization pass.
                           ----------------------------
                           !    Initial Parameters    !
                           ! (Angstroms and Degrees)  !
 --------------------------                            --------------------------
 ! Name  Definition              Value          Derivative Info.                !
 --------------------------------------------------------------------------------
 ! R1    R(1,2)                  1.5058         calculate D2E/DX2 analytically  !
 ! R2    R(1,3)                  1.4573         calculate D2E/DX2 analytically  !
 ! R3    R(1,11)                 1.3819         calculate D2E/DX2 analytically  !
 ! R4    R(2,13)                 1.0969         calculate D2E/DX2 analytically  !
 ! R5    R(2,14)                 1.0919         calculate D2E/DX2 analytically  !
 ! R6    R(2,15)                 1.0969         calculate D2E/DX2 analytically  !
 ! R7    R(3,4)                  1.2732         calculate D2E/DX2 analytically  !
 ! R8    R(3,5)                  1.4567         calculate D2E/DX2 analytically  !
 ! R9    R(5,6)                  1.3841         calculate D2E/DX2 analytically  !
 ! R10   R(5,7)                  1.3765         calculate D2E/DX2 analytically  !
 ! R11   R(6,16)                 1.4308         calculate D2E/DX2 analytically  !
 ! R12   R(7,8)                  1.3842         calculate D2E/DX2 analytically  !
 ! R13   R(7,9)                  1.4536         calculate D2E/DX2 analytically  !
 ! R14   R(8,20)                 1.4272         calculate D2E/DX2 analytically  !
 ! R15   R(9,10)                 1.2692         calculate D2E/DX2 analytically  !
 ! R16   R(9,11)                 1.4594         calculate D2E/DX2 analytically  !
 ! R17   R(11,12)                1.5108         calculate D2E/DX2 analytically  !
 ! R18   R(12,24)                1.0981         calculate D2E/DX2 analytically  !
 ! R19   R(12,25)                1.0927         calculate D2E/DX2 analytically  !
 ! R20   R(12,26)                1.5062         calculate D2E/DX2 analytically  !
 ! R21   R(16,17)                1.0906         calculate D2E/DX2 analytically  !
 ! R22   R(16,18)                1.0984         calculate D2E/DX2 analytically  !
 ! R23   R(16,19)                1.0935         calculate D2E/DX2 analytically  !
 ! R24   R(20,21)                1.0975         calculate D2E/DX2 analytically  !
 ! R25   R(20,22)                1.0933         calculate D2E/DX2 analytically  !
 ! R26   R(20,23)                1.0933         calculate D2E/DX2 analytically  !
 ! R27   R(26,27)                1.0919         calculate D2E/DX2 analytically  !
 ! R28   R(26,29)                1.3474         calculate D2E/DX2 analytically  !
 ! R29   R(28,29)                1.5068         calculate D2E/DX2 analytically  !
 ! R30   R(28,30)                1.0989         calculate D2E/DX2 analytically  !
 ! R31   R(28,31)                1.0916         calculate D2E/DX2 analytically  !
 ! R32   R(28,36)                1.0967         calculate D2E/DX2 analytically  !
 ! R33   R(29,32)                1.5065         calculate D2E/DX2 analytically  !
 ! R34   R(32,33)                1.0944         calculate D2E/DX2 analytically  !
 ! R35   R(32,34)                1.0984         calculate D2E/DX2 analytically  !
 ! R36   R(32,35)                1.0975         calculate D2E/DX2 analytically  !
 ! A1    A(2,1,3)              115.2674         calculate D2E/DX2 analytically  !
 ! A2    A(2,1,11)             122.4346         calculate D2E/DX2 analytically  !
 ! A3    A(3,1,11)             122.298          calculate D2E/DX2 analytically  !
 ! A4    A(1,2,13)             112.1385         calculate D2E/DX2 analytically  !
 ! A5    A(1,2,14)             107.6279         calculate D2E/DX2 analytically  !
 ! A6    A(1,2,15)             111.9893         calculate D2E/DX2 analytically  !
 ! A7    A(13,2,14)            108.1829         calculate D2E/DX2 analytically  !
 ! A8    A(13,2,15)            107.3634         calculate D2E/DX2 analytically  !
 ! A9    A(14,2,15)            109.4622         calculate D2E/DX2 analytically  !
 ! A10   A(1,3,4)              122.7502         calculate D2E/DX2 analytically  !
 ! A11   A(1,3,5)              115.6143         calculate D2E/DX2 analytically  !
 ! A12   A(4,3,5)              121.6303         calculate D2E/DX2 analytically  !
 ! A13   A(3,5,6)              119.4762         calculate D2E/DX2 analytically  !
 ! A14   A(3,5,7)              122.4295         calculate D2E/DX2 analytically  !
 ! A15   A(6,5,7)              118.0607         calculate D2E/DX2 analytically  !
 ! A16   A(5,6,16)             112.2994         calculate D2E/DX2 analytically  !
 ! A17   A(5,7,8)              119.8547         calculate D2E/DX2 analytically  !
 ! A18   A(5,7,9)              121.733          calculate D2E/DX2 analytically  !
 ! A19   A(8,7,9)              118.4116         calculate D2E/DX2 analytically  !
 ! A20   A(7,8,20)             111.5908         calculate D2E/DX2 analytically  !
 ! A21   A(7,9,10)             121.0416         calculate D2E/DX2 analytically  !
 ! A22   A(7,9,11)             116.3178         calculate D2E/DX2 analytically  !
 ! A23   A(10,9,11)            122.6402         calculate D2E/DX2 analytically  !
 ! A24   A(1,11,9)             121.5038         calculate D2E/DX2 analytically  !
 ! A25   A(1,11,12)            122.944          calculate D2E/DX2 analytically  !
 ! A26   A(9,11,12)            115.5522         calculate D2E/DX2 analytically  !
 ! A27   A(11,12,24)           109.8751         calculate D2E/DX2 analytically  !
 ! A28   A(11,12,25)           107.8132         calculate D2E/DX2 analytically  !
 ! A29   A(11,12,26)           111.6301         calculate D2E/DX2 analytically  !
 ! A30   A(24,12,25)           107.7051         calculate D2E/DX2 analytically  !
 ! A31   A(24,12,26)           108.7702         calculate D2E/DX2 analytically  !
 ! A32   A(25,12,26)           110.9678         calculate D2E/DX2 analytically  !
 ! A33   A(6,16,17)            110.2649         calculate D2E/DX2 analytically  !
 ! A34   A(6,16,18)            110.2636         calculate D2E/DX2 analytically  !
 ! A35   A(6,16,19)            105.8734         calculate D2E/DX2 analytically  !
 ! A36   A(17,16,18)           110.639          calculate D2E/DX2 analytically  !
 ! A37   A(17,16,19)           110.6477         calculate D2E/DX2 analytically  !
 ! A38   A(18,16,19)           109.0417         calculate D2E/DX2 analytically  !
 ! A39   A(8,20,21)            110.4488         calculate D2E/DX2 analytically  !
 ! A40   A(8,20,22)            106.2174         calculate D2E/DX2 analytically  !
 ! A41   A(8,20,23)            110.737          calculate D2E/DX2 analytically  !
 ! A42   A(21,20,22)           109.2453         calculate D2E/DX2 analytically  !
 ! A43   A(21,20,23)           110.2732         calculate D2E/DX2 analytically  !
 ! A44   A(22,20,23)           109.8302         calculate D2E/DX2 analytically  !
 ! A45   A(12,26,27)           115.0814         calculate D2E/DX2 analytically  !
 ! A46   A(12,26,29)           127.3877         calculate D2E/DX2 analytically  !
 ! A47   A(27,26,29)           117.5179         calculate D2E/DX2 analytically  !
 ! A48   A(29,28,30)           111.1868         calculate D2E/DX2 analytically  !
 ! A49   A(29,28,31)           111.6026         calculate D2E/DX2 analytically  !
 ! A50   A(29,28,36)           109.7336         calculate D2E/DX2 analytically  !
 ! A51   A(30,28,31)           109.744          calculate D2E/DX2 analytically  !
 ! A52   A(30,28,36)           106.7465         calculate D2E/DX2 analytically  !
 ! A53   A(31,28,36)           107.6472         calculate D2E/DX2 analytically  !
 ! A54   A(26,29,28)           124.1293         calculate D2E/DX2 analytically  !
 ! A55   A(26,29,32)           120.5601         calculate D2E/DX2 analytically  !
 ! A56   A(28,29,32)           115.3098         calculate D2E/DX2 analytically  !
 ! A57   A(29,32,33)           111.5256         calculate D2E/DX2 analytically  !
 ! A58   A(29,32,34)           111.0503         calculate D2E/DX2 analytically  !
 ! A59   A(29,32,35)           110.9648         calculate D2E/DX2 analytically  !
 ! A60   A(33,32,34)           108.2042         calculate D2E/DX2 analytically  !
 ! A61   A(33,32,35)           108.2008         calculate D2E/DX2 analytically  !
 ! A62   A(34,32,35)           106.7105         calculate D2E/DX2 analytically  !
 ! D1    D(3,1,2,13)          -108.7533         calculate D2E/DX2 analytically  !
 ! D2    D(3,1,2,14)            10.1126         calculate D2E/DX2 analytically  !
 ! D3    D(3,1,2,15)           130.4666         calculate D2E/DX2 analytically  !
 ! D4    D(11,1,2,13)           71.2935         calculate D2E/DX2 analytically  !
 ! D5    D(11,1,2,14)         -169.8406         calculate D2E/DX2 analytically  !
 ! D6    D(11,1,2,15)          -49.4866         calculate D2E/DX2 analytically  !
 ! D7    D(2,1,3,4)             -0.4806         calculate D2E/DX2 analytically  !
 ! D8    D(2,1,3,5)           -179.6576         calculate D2E/DX2 analytically  !
 ! D9    D(11,1,3,4)           179.4727         calculate D2E/DX2 analytically  !
 ! D10   D(11,1,3,5)             0.2957         calculate D2E/DX2 analytically  !
 ! D11   D(2,1,11,9)           179.1149         calculate D2E/DX2 analytically  !
 ! D12   D(2,1,11,12)           -0.903          calculate D2E/DX2 analytically  !
 ! D13   D(3,1,11,9)            -0.8351         calculate D2E/DX2 analytically  !
 ! D14   D(3,1,11,12)          179.1471         calculate D2E/DX2 analytically  !
 ! D15   D(1,3,5,6)            176.2211         calculate D2E/DX2 analytically  !
 ! D16   D(1,3,5,7)             -1.6277         calculate D2E/DX2 analytically  !
 ! D17   D(4,3,5,6)             -2.9659         calculate D2E/DX2 analytically  !
 ! D18   D(4,3,5,7)            179.1853         calculate D2E/DX2 analytically  !
 ! D19   D(3,5,6,16)            62.9834         calculate D2E/DX2 analytically  !
 ! D20   D(7,5,6,16)          -119.0742         calculate D2E/DX2 analytically  !
 ! D21   D(3,5,7,8)           -176.2102         calculate D2E/DX2 analytically  !
 ! D22   D(3,5,7,9)              3.5015         calculate D2E/DX2 analytically  !
 ! D23   D(6,5,7,8)              5.912          calculate D2E/DX2 analytically  !
 ! D24   D(6,5,7,9)           -174.3763         calculate D2E/DX2 analytically  !
 ! D25   D(5,6,16,17)          -58.3082         calculate D2E/DX2 analytically  !
 ! D26   D(5,6,16,18)           64.1602         calculate D2E/DX2 analytically  !
 ! D27   D(5,6,16,19)         -178.0292         calculate D2E/DX2 analytically  !
 ! D28   D(5,7,8,20)          -106.5589         calculate D2E/DX2 analytically  !
 ! D29   D(9,7,8,20)            73.7198         calculate D2E/DX2 analytically  !
 ! D30   D(5,7,9,10)           175.9867         calculate D2E/DX2 analytically  !
 ! D31   D(5,7,9,11)            -3.7982         calculate D2E/DX2 analytically  !
 ! D32   D(8,7,9,10)            -4.2975         calculate D2E/DX2 analytically  !
 ! D33   D(8,7,9,11)           175.9176         calculate D2E/DX2 analytically  !
 ! D34   D(7,8,20,21)           61.6942         calculate D2E/DX2 analytically  !
 ! D35   D(7,8,20,22)         -179.9589         calculate D2E/DX2 analytically  !
 ! D36   D(7,8,20,23)          -60.7573         calculate D2E/DX2 analytically  !
 ! D37   D(7,9,11,1)             2.4747         calculate D2E/DX2 analytically  !
 ! D38   D(7,9,11,12)         -177.5087         calculate D2E/DX2 analytically  !
 ! D39   D(10,9,11,1)         -177.3064         calculate D2E/DX2 analytically  !
 ! D40   D(10,9,11,12)           2.7102         calculate D2E/DX2 analytically  !
 ! D41   D(1,11,12,24)          39.1025         calculate D2E/DX2 analytically  !
 ! D42   D(1,11,12,25)         156.2203         calculate D2E/DX2 analytically  !
 ! D43   D(1,11,12,26)         -81.6559         calculate D2E/DX2 analytically  !
 ! D44   D(9,11,12,24)        -140.9144         calculate D2E/DX2 analytically  !
 ! D45   D(9,11,12,25)         -23.7966         calculate D2E/DX2 analytically  !
 ! D46   D(9,11,12,26)          98.3272         calculate D2E/DX2 analytically  !
 ! D47   D(11,12,26,27)         74.1629         calculate D2E/DX2 analytically  !
 ! D48   D(11,12,26,29)       -104.4831         calculate D2E/DX2 analytically  !
 ! D49   D(24,12,26,27)        -47.2384         calculate D2E/DX2 analytically  !
 ! D50   D(24,12,26,29)        134.1157         calculate D2E/DX2 analytically  !
 ! D51   D(25,12,26,27)       -165.5466         calculate D2E/DX2 analytically  !
 ! D52   D(25,12,26,29)         15.8075         calculate D2E/DX2 analytically  !
 ! D53   D(12,26,29,28)          0.169          calculate D2E/DX2 analytically  !
 ! D54   D(12,26,29,32)       -179.514          calculate D2E/DX2 analytically  !
 ! D55   D(27,26,29,28)       -178.4481         calculate D2E/DX2 analytically  !
 ! D56   D(27,26,29,32)          1.8688         calculate D2E/DX2 analytically  !
 ! D57   D(30,28,29,26)       -101.455          calculate D2E/DX2 analytically  !
 ! D58   D(30,28,29,32)         78.2431         calculate D2E/DX2 analytically  !
 ! D59   D(31,28,29,26)         21.4444         calculate D2E/DX2 analytically  !
 ! D60   D(31,28,29,32)       -158.8575         calculate D2E/DX2 analytically  !
 ! D61   D(36,28,29,26)        140.6828         calculate D2E/DX2 analytically  !
 ! D62   D(36,28,29,32)        -39.6191         calculate D2E/DX2 analytically  !
 ! D63   D(26,29,32,33)          1.2587         calculate D2E/DX2 analytically  !
 ! D64   D(26,29,32,34)        122.0321         calculate D2E/DX2 analytically  !
 ! D65   D(26,29,32,35)       -119.4517         calculate D2E/DX2 analytically  !
 ! D66   D(28,29,32,33)       -178.4511         calculate D2E/DX2 analytically  !
 ! D67   D(28,29,32,34)        -57.6776         calculate D2E/DX2 analytically  !
 ! D68   D(28,29,32,35)         60.8385         calculate D2E/DX2 analytically  !
 --------------------------------------------------------------------------------
 Trust Radius=3.00D-01 FncErr=1.00D-07 GrdErr=1.00D-07 EigMax=2.50D+02 EigMin=1.00D-04
 Number of steps in this run=      2 maximum allowed number of steps=      2.
 GradGradGradGradGradGradGradGradGradGradGradGradGradGradGradGradGradGrad

                          Input orientation:                          
 ---------------------------------------------------------------------
 Center     Atomic      Atomic             Coordinates (Angstroms)
 Number     Number       Type             X           Y           Z
 ---------------------------------------------------------------------
      1          6           0        0.244322   -1.518459    0.646791
      2          6           0       -0.269766   -2.896039    0.971498
      3          6           0        1.625127   -1.462860    0.184109
      4          8           0        2.355180   -2.499596    0.068777
      5          6           0        2.132698   -0.132890   -0.124782
      6          8           0        3.457356    0.021471   -0.495288
      7          6           0        1.353267    0.997034   -0.021647
      8          8           0        1.865758    2.224858   -0.403476
      9          6           0       -0.011306    0.941717    0.476234
     10          8           0       -0.692702    2.000306    0.637068
     11          6           0       -0.536384   -0.385910    0.778625
     12          6           0       -1.974766   -0.428528    1.238904
     13          1           0       -1.000780   -3.249001    0.233708
     14          1           0        0.582673   -3.578338    0.959914
     15          1           0       -0.753728   -2.932510    1.955152
     16          6           0        3.762483   -0.659307   -1.716192
     17          1           0        3.543456   -1.723376   -1.620284
     18          1           0        3.195280   -0.220740   -2.548313
     19          1           0        4.830359   -0.499481   -1.888933
     20          6           0        2.162462    3.044469    0.726554
     21          1           0        2.926241    2.569055    1.355061
     22          1           0        2.556877    3.982969    0.327917
     23          1           0        1.259274    3.240119    1.310675
     24          1           0       -2.089213   -1.173290    2.037735
     25          1           0       -2.220419    0.549771    1.658994
     26          6           0       -2.908522   -0.780525    0.110714
     27          1           0       -2.890917   -1.828669   -0.194779
     28          6           0       -3.843833    1.527825   -0.289907
     29          6           0       -3.727053    0.050714   -0.563414
     30          1           0       -4.744175    1.752797    0.298656
     31          1           0       -2.961228    1.912277    0.224742
     32          6           0       -4.610280   -0.471867   -1.666265
     33          1           0       -4.496219   -1.552787   -1.793936
     34          1           0       -5.667922   -0.260615   -1.458270
     35          1           0       -4.373641    0.013044   -2.621926
     36          1           0       -3.940643    2.073159   -1.236455
 ---------------------------------------------------------------------
                    Distance matrix (angstroms):
                    1          2          3          4          5
     1  C    0.000000
     2  C    1.505805   0.000000
     3  C    1.457322   2.502919   0.000000
     4  O    2.398428   2.804000   1.273225   0.000000
     5  C    2.465987   3.822127   1.456661   2.385008   0.000000
     6  O    3.741566   4.955277   2.453952   2.808690   1.384132
     7  C    2.829182   4.333197   2.483409   3.638466   1.376546
     8  O    4.212426   5.716170   3.741981   4.773156   2.389122
     9  C    2.479294   3.878203   2.923224   4.196298   2.472399
    10  O    3.641402   4.925943   4.191780   5.464582   3.621301
    11  C    1.381864   2.531607   2.487046   3.651396   2.829163
    12  C    2.542223   3.011169   3.891229   4.940340   4.338007
    13  H    2.171564   1.096949   3.176184   3.442568   4.433660
    14  H    2.110836   1.091933   2.482706   2.258228   3.930681
    15  H    2.169666   1.096870   3.309896   3.662122   4.527190
    16  C    4.324268   5.337198   2.970713   2.924599   2.337927
    17  H    4.008230   4.757430   2.646449   2.206229   2.599310
    18  H    4.538823   5.617192   3.387384   3.570450   2.647697
    19  H    5.338534   6.319560   3.936892   3.736254   3.244071
    20  C    4.950347   6.423812   4.571541   5.586275   3.289570
    21  H    4.939849   6.342621   4.395494   5.260406   3.181219
    22  H    5.976228   7.464908   5.526834   6.490877   4.162350
    23  H    4.910696   6.332886   4.849846   5.973914   3.768367
    24  H    2.738476   2.723070   4.161262   5.038702   4.856279
    25  H    3.372992   4.018868   4.584124   5.723944   4.753684
    26  C    3.282126   3.489897   4.585296   5.537466   5.088103
    27  H    3.261010   3.061031   4.546649   5.295388   5.302572
    28  C    5.183653   5.825433   6.251272   7.401118   6.205172
    29  C    4.438323   4.795012   5.612087   6.625504   5.879013
    30  H    5.975568   6.487274   7.135936   8.278680   7.143284
    31  H    4.714193   5.560712   5.694545   6.910365   5.500269
    32  C    5.478388   5.628008   6.579229   7.459202   6.925232
    33  H    5.332077   5.226362   6.433632   7.162948   6.981742
    34  H    6.400631   6.479917   7.571747   8.468475   7.914807
    35  H    5.861364   6.182011   6.785082   7.670090   6.970615
    36  H    5.827543   6.560741   6.745311   7.889937   6.556519
                    6          7          8          9         10
     6  O    0.000000
     7  C    2.367119   0.000000
     8  O    2.719656   1.384194   0.000000
     9  C    3.717839   1.453618   2.437973   0.000000
    10  O    4.735082   2.372013   2.771078   1.269164   0.000000
    11  C    4.211742   2.474621   3.739486   1.459363   2.395517
    12  C    5.719954   3.833669   4.948485   2.512850   2.811607
    13  H    5.576952   4.861641   6.211777   4.312770   5.273787
    14  H    4.831153   4.742500   6.097722   4.584501   5.731673
    15  H    5.697709   4.877343   6.246861   4.212840   5.106245
    16  C    1.430793   3.379242   3.693128   4.648817   5.697372
    17  H    2.077865   3.840990   4.459131   4.912683   6.075071
    18  H    2.083809   3.355596   3.514100   4.558660   5.495097
    19  H    2.024543   4.220958   4.291557   5.577884   6.567634
    20  C    3.508300   2.325208   1.427152   3.034715   3.041421
    21  H    3.193128   2.615497   2.082198   3.471275   3.733060
    22  H    4.145117   3.238314   2.025718   3.983312   3.819200
    23  H    4.295668   2.610621   2.082520   2.755597   2.408545
    24  H    6.213541   4.560924   5.757492   3.351005   3.739495
    25  H    6.095668   3.974397   4.874069   2.536281   2.341432
    26  C    6.444753   4.619533   5.664846   3.390219   3.594431
    27  H    6.619206   5.101731   6.253047   4.051845   4.492790
    28  C    7.457791   5.231018   5.753102   3.952057   3.318456
    29  C    7.184792   5.196026   6.002668   3.959991   3.801231
    30  H    8.419795   6.152444   6.663862   4.805147   4.073110
    31  H    6.729919   4.417379   4.877721   3.115650   2.307374
    32  C    8.167088   6.358170   7.127835   5.266791   5.173433
    33  H    8.211219   6.622618   7.528528   5.611654   5.744649
    34  H    9.180283   7.276170   8.002906   6.097967   5.852779
    35  H    8.114627   6.366094   6.981672   5.430561   5.302789
    36  H    7.712920   5.537083   5.867808   4.433188   3.750269
                   11         12         13         14         15
    11  C    0.000000
    12  C    1.510834   0.000000
    13  H    2.951251   3.148672   0.000000
    14  H    3.387735   4.066894   1.772896   0.000000
    15  H    2.813650   2.876434   1.767645   1.787053   0.000000
    16  C    4.977862   6.457700   5.761709   5.078728   6.248390
    17  H    4.918198   6.348415   5.139543   4.343334   5.719400
    18  H    5.002110   6.412142   5.875110   5.514240   6.574918
    19  H    5.994222   7.489869   6.787315   5.969768   7.202683
    20  C    4.365087   5.425944   7.060931   6.812617   6.762979
    21  H    4.588450   5.746205   7.108354   6.590819   6.646014
    22  H    5.372011   6.389601   8.060222   7.840297   7.837847
    23  H    4.081121   4.891129   6.955312   6.860916   6.524482
    24  H    2.148628   1.098134   2.957663   3.752988   2.210248
    25  H    2.118142   1.092652   4.236699   5.038582   3.790141
    26  C    2.495770   1.506192   3.122175   4.553826   3.560355
    27  H    2.927950   2.203445   2.402824   4.057151   3.226181
    28  C    3.967791   3.107731   5.583475   6.872329   5.872276
    29  C    3.488851   2.559010   4.353859   5.836461   4.907490
    30  H    4.744465   3.648544   6.247816   7.565287   6.373362
    31  H    3.386491   2.735142   5.521071   6.576211   5.598154
    32  C    4.752000   3.922731   4.934660   6.596494   5.834588
    33  H    4.864151   4.101195   4.382531   6.122229   5.474079
    34  H    5.599293   4.576280   5.794433   7.478290   6.552845
    35  H    5.142708   4.566793   5.492884   7.091731   6.536796
    36  H    4.657955   4.031192   6.255363   7.564644   6.737915
                   16         17         18         19         20
    16  C    0.000000
    17  H    1.090603   0.000000
    18  H    1.098402   1.800106   0.000000
    19  H    1.093500   1.796165   1.784927   0.000000
    20  C    4.716464   5.490642   4.738465   5.149566   0.000000
    21  H    4.533677   5.259145   4.805379   4.854388   1.097450
    22  H    5.213693   6.109926   5.133363   5.493223   1.093278
    23  H    5.534754   6.200346   5.533303   6.080686   1.093263
    24  H    6.971262   6.738743   7.061519   7.984561   6.130695
    25  H    6.974874   7.010216   6.901080   7.962549   5.128607
    26  C    6.917701   6.746358   6.681331   7.997991   6.381592
    27  H    6.924582   6.591230   6.720591   8.015922   7.080463
    28  C    8.042007   8.179991   7.596511   9.050330   6.277657
    29  C    7.610925   7.558087   7.206400   8.676925   6.731491
    30  H    9.068688   9.189720   8.662276  10.076210   7.039400
    31  H    7.455773   7.676784   7.081114   8.425736   5.271231
    32  C    8.375010   8.249352   7.859252   9.443305   7.997514
    33  H    8.307256   8.043359   7.842358   9.386348   8.475002
    34  H    9.442352   9.328205   8.930068  10.509825   8.775645
    35  H    8.213946   8.166937   7.572888   9.247355   7.944967
    36  H    8.187470   8.400759   7.609490   9.163771   6.484191
                   21         22         23         24         25
    21  H    0.000000
    22  H    1.786227   0.000000
    23  H    1.797519   1.789249   0.000000
    24  H    6.294916   7.148191   5.587411   0.000000
    25  H    5.536966   6.031681   4.412206   1.769067   0.000000
    26  C    6.841970   7.253182   5.914052   2.130479   2.154146
    27  H    7.455287   7.982907   6.721836   2.460968   3.089177
    28  C    7.044429   6.883206   5.615649   3.973994   2.718506
    29  C    7.368101   7.466250   6.208702   3.308577   2.730952
    30  H    7.785728   7.634127   6.267194   4.316851   3.109202
    31  H    6.030860   5.894735   4.555771   3.683487   2.112415
    32  C    8.670339   8.671244   7.555970   4.535128   4.220489
    33  H    9.055312   9.213740   8.107790   4.540859   4.639261
    34  H    9.475310   9.425804   8.240645   5.085488   4.717980
    35  H    8.697005   8.514338   7.590065   5.323386   4.821900
    36  H    7.356356   6.950712   5.906675   4.968656   3.696418
                   26         27         28         29         30
    26  C    0.000000
    27  H    1.091898   0.000000
    28  C    2.522654   3.490437   0.000000
    29  C    1.347368   2.089759   1.506752   0.000000
    30  H    3.134113   4.062627   1.098925   2.162126   0.000000
    31  H    2.695731   3.765052   1.091631   2.161734   1.791591
    32  C    2.479699   2.638635   2.545696   1.506473   2.971190
    33  H    2.597087   2.282633   3.489682   2.162641   3.920116
    34  H    3.216567   3.430300   2.809073   2.159783   2.827353
    35  H    3.200570   3.388425   2.830825   2.158001   3.419625
    36  H    3.320189   4.172682   1.096683   2.142170   1.762062
                   31         32         33         34         35
    31  H    0.000000
    32  C    3.461130   0.000000
    33  H    4.293940   1.094394   0.000000
    34  H    3.857483   1.098405   1.776307   0.000000
    35  H    3.702096   1.097463   1.775505   1.761859   0.000000
    36  H    1.766418   2.666516   3.710382   2.911905   2.520137
                   36
    36  H    0.000000
 Symmetry turned off by external request.
 Stoichiometry    C14H18O4(1-,2)
 Framework group  C1[X(C14H18O4)]
 Deg. of freedom   102
 Full point group                 C1      NOp   1
 Rotational constants (GHZ):           0.5971386           0.2789386           0.2200309
 Standard basis: 6-31G(d) (6D, 7F)
   306 basis functions,   576 primitive gaussians,   306 cartesian basis functions
    68 alpha electrons       67 beta electrons
       nuclear repulsion energy      1352.7391650582 Hartrees.
 NAtoms=   36 NActive=   36 NUniq=   36 SFac= 1.00D+00 NAtFMM=   60 NAOKFM=F Big=F
 Integral buffers will be    131072 words long.
 Raffenetti 2 integral format.
 Two-electron integral symmetry is turned off.
 One-electron integrals computed using PRISM.
 NBasis=   306 RedAO= T EigKep=  3.12D-04  NBF=   306
 NBsUse=   306 1.00D-06 EigRej= -1.00D+00 NBFU=   306
 Initial guess from the checkpoint file:  "Q1H-opt2try1_opt-3.try2.chk"
 B after Tr=     0.000433    0.000041   -0.000513
         Rot=    0.000085   -0.000088    1.000000    0.000132 Ang=-179.99 deg.
 Initial guess <Sx>= 0.0000 <Sy>= 0.0000 <Sz>= 0.5000 <S**2>= 0.8484 S= 0.5480
 Requested convergence on RMS density matrix=1.00D-08 within 128 cycles.
 Requested convergence on MAX density matrix=1.00D-06.
 Requested convergence on             energy=1.00D-06.
 No special actions if energy rises.
 SCF Done:  E(UHF) =  -840.032405754     A.U. after    1 cycles
            NFock=  1  Conv=0.30D-08     -V/T= 2.0021
 <Sx>= 0.0000 <Sy>= 0.0000 <Sz>= 0.5000 <S**2>= 0.8484 S= 0.5480
 <L.S>=  0.00000000000    
 Annihilation of the first spin contaminant:
 S**2 before annihilation     0.8484,   after     0.7538
 ExpMin= 1.61D-01 ExpMax= 5.48D+03 ExpMxC= 8.25D+02 IAcc=3 IRadAn=         5 AccDes= 0.00D+00
 HarFok:  IExCor=  205 AccDes= 0.00D+00 IRadAn=         5 IDoV=-2 UseB2=F ITyADJ=14
 ICtDFT= 12500011 ScaDFX=  1.000000  1.000000  1.000000  1.000000
 Range of M.O.s used for correlation:    19   306
 NBasis=   306 NAE=    68 NBE=    67 NFC=    18 NFV=     0
 NROrb=    288 NOA=    50 NOB=    49 NVA=   238 NVB=   239
 Disk-based method using ON**2 memory for 50 occupieds at a time.
 Permanent disk used for amplitudes=   386283877 words.
 Estimated scratch disk usage=  2371485880 words.
 Actual    scratch disk usage=  2223636664 words.
 JobTyp=2 Pass  1:  I=  19 to  68 NPSUse=  4 ParTrn=T ParDer=T DoDerP=T.
 Actual    scratch disk usage=  2223636664 words.
 JobTyp=3 Pass  1:  I=  19 to  67 NPSUse=  4 ParTrn=T ParDer=T DoDerP=T.
 Spin components of T(2) and E(2):
     alpha-alpha T2 =       0.1135638008D+00 E2=     -0.3375923625D+00
     alpha-beta  T2 =       0.6044086058D+00 E2=     -0.1846097433D+01
     beta-beta   T2 =       0.1121956976D+00 E2=     -0.3321690859D+00
 (S**2,0)=  0.84838D+00           (S**2,1)=  0.80250D+00
 E(PUHF)=      -0.84004227733D+03        E(PMP2)=      -0.84255588636D+03
 ANorm=    0.1352837057D+01
 E2 =    -0.2515858882D+01 EUMP2 =    -0.84254826463510D+03
 G2DrvN: will do    37 centers at a time, making    1 passes.
 Calling FoFCou, ICntrl=  3107 FMM=F I1Cent=   0 AccDes= 0.00D+00.
 End of G2Drv F.D. properties file   721 does not exist.
 End of G2Drv F.D. properties file   722 does not exist.
 End of G2Drv F.D. properties file   788 does not exist.
          IDoAtm=111111111111111111111111111111111111
          Differentiating once with respect to electric field.
                with respect to dipole field.
          Differentiating once with respect to nuclear coordinates.
          There are   111 degrees of freedom in the 1st order CPHF.  IDoFFX=6 NUNeed=   111.
    108 vectors produced by pass  0 Test12= 3.22D-14 1.00D-09 XBig12= 1.16D+02 4.34D+00.
 AX will form   108 AO Fock derivatives at one time.
    108 vectors produced by pass  1 Test12= 3.22D-14 1.00D-09 XBig12= 7.10D+00 4.14D-01.
    108 vectors produced by pass  2 Test12= 3.22D-14 1.00D-09 XBig12= 7.88D-01 3.62D-01.
    108 vectors produced by pass  3 Test12= 3.22D-14 1.00D-09 XBig12= 1.83D-02 2.26D-02.
    108 vectors produced by pass  4 Test12= 3.22D-14 1.00D-09 XBig12= 2.50D-04 1.35D-03.
    108 vectors produced by pass  5 Test12= 3.22D-14 1.00D-09 XBig12= 4.65D-06 1.46D-04.
    108 vectors produced by pass  6 Test12= 3.22D-14 1.00D-09 XBig12= 6.92D-08 2.24D-05.
     75 vectors produced by pass  7 Test12= 3.22D-14 1.00D-09 XBig12= 8.62D-10 2.11D-06.
     20 vectors produced by pass  8 Test12= 3.22D-14 1.00D-09 XBig12= 1.05D-11 1.53D-07.
      3 vectors produced by pass  9 Test12= 3.22D-14 1.00D-09 XBig12= 1.35D-13 1.97D-08.
      2 vectors produced by pass 10 Test12= 3.22D-14 1.00D-09 XBig12= 2.12D-15 2.12D-09.
 InvSVY:  IOpt=1 It=  1 EMax= 2.66D-14
 Solved reduced A of dimension   856 with   111 vectors.
 End of Minotr F.D. properties file   721 does not exist.
 End of Minotr F.D. properties file   722 does not exist.
 End of Minotr F.D. properties file   788 does not exist.
 MDV=   536870912.
 Form MO integral derivatives with frozen-active canonical formalism.
 Discarding MO integrals.
 Reordered first order wavefunction length =   1550029452
 In DefCFB: NBatch=  1 ICI= 68 ICA=239 LFMax= 30
            Large arrays: LIAPS= 12059193168 LIARS=  1044353520 words.
 In DefCFB: NBatch=  1 ICI= 68 ICA=239 LFMax= 30
            Large arrays: LIAPS= 12059193168 LIARS=  1044353520 words.
 Semi-Direct transformation.
 ModeAB=           4 MOrb=            68 LenV=     534338321
 LASXX=    822068575 LTotXX=   822068575 LenRXX=  1692441205
 LTotAB=   870372630 MaxLAS=   793950048 LenRXY=           0
 NonZer=  2514509780 LenScr=  3773825024 LnRSAI=   793950048
 LnScr1=  1191706624 LExtra=           0 Total=   7451922901
 MaxDsk=          -1 SrtSym=           T ITran=            4
 JobTyp=1 Pass  1:  I=   1 to  68.
 ModeAB=           4 MOrb=            67 LenV=     534338321
 LASXX=    812575062 LTotXX=   812575062 LenRXX=  1332789393
 LTotAB=   520214331 MaxLAS=   782274312 LenRXY=           0
 NonZer=  2145364455 LenScr=  3219128320 LnRSAI=   782274312
 LnScr1=  1174405120 LExtra=           0 Total=   6508597145
 MaxDsk=          -1 SrtSym=           T ITran=            4
 JobTyp=2 Pass  1:  I=   1 to  67.
 Spin components of T(2) and E(2):
     alpha-alpha T2 =       0.1135638008D+00 E2=     -0.3375923625D+00
     alpha-beta  T2 =       0.6044086058D+00 E2=     -0.1846097433D+01
     beta-beta   T2 =       0.1121956976D+00 E2=     -0.3321690859D+00
 ANorm=    0.1913200514D+01
 E2 =    -0.2515858882D+01 EUMP2 =    -0.84254826463510D+03
 (S**2,0)=  0.84838D+00           (S**2,1)=  0.80250D+00
 E(PUHF)=      -0.84004227733D+03        E(PMP2)=      -0.84255588636D+03
          IDoAtm=111111111111111111111111111111111111
          Differentiating once with respect to electric field.
                with respect to dipole field.
          Differentiating once with respect to nuclear coordinates.
          There are     1 degrees of freedom in the 1st order CPHF.  IDoFFX=0 NUNeed=     1.
 LinEq1:  Iter=  0 NonCon=     1 RMS=1.82D-03 Max=6.61D-02 NDo=     1
 LinEq1:  Iter=  1 NonCon=     1 RMS=7.16D-04 Max=3.76D-02 NDo=     1
 LinEq1:  Iter=  2 NonCon=     1 RMS=3.25D-04 Max=1.21D-02 NDo=     1
 LinEq1:  Iter=  3 NonCon=     1 RMS=1.80D-04 Max=1.19D-02 NDo=     1
 LinEq1:  Iter=  4 NonCon=     1 RMS=7.14D-05 Max=3.52D-03 NDo=     1
 LinEq1:  Iter=  5 NonCon=     1 RMS=2.91D-05 Max=1.88D-03 NDo=     1
 LinEq1:  Iter=  6 NonCon=     1 RMS=1.73D-05 Max=1.17D-03 NDo=     1
 LinEq1:  Iter=  7 NonCon=     1 RMS=6.10D-06 Max=2.05D-04 NDo=     1
 LinEq1:  Iter=  8 NonCon=     1 RMS=2.24D-06 Max=1.11D-04 NDo=     1
 LinEq1:  Iter=  9 NonCon=     1 RMS=8.17D-07 Max=2.68D-05 NDo=     1
 LinEq1:  Iter= 10 NonCon=     1 RMS=2.85D-07 Max=1.33D-05 NDo=     1
 LinEq1:  Iter= 11 NonCon=     1 RMS=1.33D-07 Max=6.34D-06 NDo=     1
 LinEq1:  Iter= 12 NonCon=     1 RMS=6.53D-08 Max=6.26D-06 NDo=     1
 LinEq1:  Iter= 13 NonCon=     1 RMS=2.70D-08 Max=1.29D-06 NDo=     1
 LinEq1:  Iter= 14 NonCon=     1 RMS=1.23D-08 Max=6.29D-07 NDo=     1
 LinEq1:  Iter= 15 NonCon=     1 RMS=5.52D-09 Max=4.01D-07 NDo=     1
 LinEq1:  Iter= 16 NonCon=     1 RMS=2.66D-09 Max=1.55D-07 NDo=     1
 LinEq1:  Iter= 17 NonCon=     1 RMS=1.08D-09 Max=4.41D-08 NDo=     1
 LinEq1:  Iter= 18 NonCon=     1 RMS=4.25D-10 Max=1.72D-08 NDo=     1
 LinEq1:  Iter= 19 NonCon=     1 RMS=1.60D-10 Max=6.05D-09 NDo=     1
 LinEq1:  Iter= 20 NonCon=     1 RMS=7.12D-11 Max=5.07D-09 NDo=     1
 LinEq1:  Iter= 21 NonCon=     0 RMS=2.44D-11 Max=8.27D-10 NDo=     1
 Linear equations converged to 1.000D-10 1.000D-09 after    21 iterations.
 End of Minotr F.D. properties file   721 does not exist.
 End of Minotr F.D. properties file   722 does not exist.
 End of Minotr F.D. properties file   788 does not exist.
 Symmetrizing basis deriv contribution to polar:
 IMax=3 JMax=2 DiffMx= 0.00D+00
 G2DrvN: will do    37 centers at a time, making    1 passes.
 Calling FoFCou, ICntrl=  3107 FMM=F I1Cent=   0 AccDes= 0.00D+00.
 End of G2Drv F.D. properties file   721 does not exist.
 End of G2Drv F.D. properties file   722 does not exist.
 End of G2Drv F.D. properties file   788 does not exist.
 Would need an additional  1683921966 words for in-memory AO integral storage.
 DD1Dir will call FoFJK  28 times, MxPair=       486
 NAB=  4556 NAA=  2278 NBB=  2211 NumPrc=  4.
 FoFJK:  IHMeth= 1 ICntrl=     200 DoSepK=F KAlg= 0 I1Cent=           0 FoldK=F
 IRaf= 990000000 NMat=     486 IRICut=     607 DoRegI=T DoRafI=T ISym2E= 0 IDoP0=0 IntGTp=1.
 FoFCou: FMM=F IPFlag=           0 FMFlag=           0 FMFlg1=           0
         NFxFlg=           0 DoJE=F BraDBF=F KetDBF=F FulRan=T
         wScrn=  0.000000 ICntrl=       200 IOpCl=  0 I1Cent=           0 NGrid=           0
         NMat0=  486 NMatS0=      0 NMatT0=  243 NMatD0=  486 NMtDS0=    0 NMtDT0=    0
 Symmetry not used in FoFCou.
 Raff kept on since  22.22% of shell-pairs survive, threshold=   0.20 IRatSp=22.
 Discarding MO integrals.

 **********************************************************************

            Population analysis using the SCF Density.

 **********************************************************************

 Alpha  occ. eigenvalues --  -20.43581 -20.43406 -20.37623 -20.37139 -11.14456
 Alpha  occ. eigenvalues --  -11.14216 -11.14105 -11.14100 -11.13851 -11.13363
 Alpha  occ. eigenvalues --  -11.12316 -11.12044 -11.10684 -11.09980 -11.09824
 Alpha  occ. eigenvalues --  -11.09283 -11.08983 -11.08874  -1.25912  -1.23697
 Alpha  occ. eigenvalues --   -1.19136  -1.18784  -0.99267  -0.97083  -0.90672
 Alpha  occ. eigenvalues --   -0.87623  -0.82990  -0.82128  -0.81197  -0.78537
 Alpha  occ. eigenvalues --   -0.75468  -0.73621  -0.63978  -0.63228  -0.59154
 Alpha  occ. eigenvalues --   -0.56977  -0.53435  -0.52385  -0.51370  -0.50497
 Alpha  occ. eigenvalues --   -0.49209  -0.48549  -0.48178  -0.47910  -0.47394
 Alpha  occ. eigenvalues --   -0.45341  -0.44656  -0.44322  -0.43135  -0.42574
 Alpha  occ. eigenvalues --   -0.41566  -0.40697  -0.40656  -0.40007  -0.38957
 Alpha  occ. eigenvalues --   -0.38889  -0.37700  -0.36783  -0.36595  -0.35037
 Alpha  occ. eigenvalues --   -0.32329  -0.31243  -0.26913  -0.25660  -0.25397
 Alpha  occ. eigenvalues --   -0.21530  -0.17778  -0.09774
 Alpha virt. eigenvalues --    0.27620   0.30508   0.32919   0.33739   0.35862
 Alpha virt. eigenvalues --    0.38205   0.39026   0.39597   0.40219   0.41257
 Alpha virt. eigenvalues --    0.41986   0.42447   0.43402   0.43501   0.44369
 Alpha virt. eigenvalues --    0.44576   0.46088   0.46553   0.46998   0.47679
 Alpha virt. eigenvalues --    0.48394   0.50685   0.51007   0.51436   0.52425
 Alpha virt. eigenvalues --    0.54409   0.56374   0.58170   0.59421   0.63298
 Alpha virt. eigenvalues --    0.64456   0.65091   0.68547   0.69969   0.72318
 Alpha virt. eigenvalues --    0.74980   0.75451   0.77004   0.81151   0.82589
 Alpha virt. eigenvalues --    0.83303   0.84588   0.86208   0.87312   0.88794
 Alpha virt. eigenvalues --    0.89150   0.89247   0.90249   0.90616   0.91560
 Alpha virt. eigenvalues --    0.92289   0.93005   0.94369   0.95851   0.96399
 Alpha virt. eigenvalues --    0.98077   0.99026   0.99561   1.02808   1.03836
 Alpha virt. eigenvalues --    1.05440   1.06505   1.07580   1.07738   1.08785
 Alpha virt. eigenvalues --    1.10091   1.10404   1.11607   1.11911   1.13316
 Alpha virt. eigenvalues --    1.14483   1.16335   1.17626   1.18561   1.19472
 Alpha virt. eigenvalues --    1.20769   1.23522   1.24030   1.24594   1.25077
 Alpha virt. eigenvalues --    1.25507   1.26073   1.27201   1.27332   1.27810
 Alpha virt. eigenvalues --    1.28452   1.29505   1.30341   1.31028   1.31237
 Alpha virt. eigenvalues --    1.32114   1.33576   1.34115   1.34611   1.36011
 Alpha virt. eigenvalues --    1.37532   1.38158   1.39129   1.41487   1.42008
 Alpha virt. eigenvalues --    1.42448   1.44932   1.49132   1.49874   1.50163
 Alpha virt. eigenvalues --    1.51289   1.52527   1.54650   1.56581   1.57755
 Alpha virt. eigenvalues --    1.58791   1.60316   1.61597   1.63606   1.65468
 Alpha virt. eigenvalues --    1.65990   1.67378   1.71573   1.73289   1.75378
 Alpha virt. eigenvalues --    1.77480   1.79474   1.80123   1.81557   1.82570
 Alpha virt. eigenvalues --    1.84030   1.84676   1.86626   1.87229   1.87852
 Alpha virt. eigenvalues --    1.90025   1.91844   1.94340   1.99651   2.02725
 Alpha virt. eigenvalues --    2.05803   2.09012   2.11468   2.14515   2.15265
 Alpha virt. eigenvalues --    2.18013   2.18770   2.20345   2.20575   2.23479
 Alpha virt. eigenvalues --    2.24488   2.26520   2.26896   2.28031   2.28303
 Alpha virt. eigenvalues --    2.30983   2.32528   2.33045   2.34184   2.35023
 Alpha virt. eigenvalues --    2.37579   2.38707   2.40470   2.41683   2.42256
 Alpha virt. eigenvalues --    2.45199   2.46626   2.47496   2.50388   2.50887
 Alpha virt. eigenvalues --    2.53210   2.53888   2.54743   2.55728   2.56358
 Alpha virt. eigenvalues --    2.59084   2.60822   2.61268   2.63144   2.66280
 Alpha virt. eigenvalues --    2.67102   2.68332   2.68864   2.70210   2.71644
 Alpha virt. eigenvalues --    2.73268   2.74628   2.74788   2.79048   2.81561
 Alpha virt. eigenvalues --    2.82587   2.83848   2.85363   2.86081   2.86867
 Alpha virt. eigenvalues --    2.88635   2.90341   2.93979   2.94400   2.94545
 Alpha virt. eigenvalues --    2.98245   3.00455   3.02093   3.04735   3.08151
 Alpha virt. eigenvalues --    3.09649   3.13195   3.13527   3.16501   3.16897
 Alpha virt. eigenvalues --    3.23433   3.26717   3.31344   3.32283   3.37121
 Alpha virt. eigenvalues --    3.42136   3.46509   3.47533   3.51835   3.53337
 Alpha virt. eigenvalues --    3.56923   3.57627   3.61994   3.86821   3.93660
 Alpha virt. eigenvalues --    4.39276   4.54113   4.62316   4.67209   4.74187
 Alpha virt. eigenvalues --    4.77084   4.78057   4.81128   4.81941   4.83336
 Alpha virt. eigenvalues --    4.91087   4.92384   4.98884   5.06170   5.12379
 Alpha virt. eigenvalues --    5.22749   5.37137   5.81800
  Beta  occ. eigenvalues --  -20.43574 -20.43404 -20.35868 -20.35539 -11.14458
  Beta  occ. eigenvalues --  -11.14219 -11.14074 -11.14037 -11.13743 -11.13308
  Beta  occ. eigenvalues --  -11.12342 -11.11836 -11.10873 -11.10008 -11.09826
  Beta  occ. eigenvalues --  -11.09148 -11.08908 -11.08872  -1.25773  -1.23486
  Beta  occ. eigenvalues --   -1.15578  -1.15203  -0.98881  -0.96200  -0.90411
  Beta  occ. eigenvalues --   -0.87283  -0.82919  -0.81612  -0.81028  -0.78229
  Beta  occ. eigenvalues --   -0.74150  -0.73129  -0.63404  -0.62562  -0.59062
  Beta  occ. eigenvalues --   -0.56823  -0.53144  -0.52135  -0.51168  -0.50051
  Beta  occ. eigenvalues --   -0.49046  -0.48324  -0.48024  -0.47712  -0.46868
  Beta  occ. eigenvalues --   -0.44841  -0.43874  -0.43342  -0.42727  -0.42029
  Beta  occ. eigenvalues --   -0.41144  -0.40409  -0.39375  -0.38757  -0.37731
  Beta  occ. eigenvalues --   -0.37325  -0.36336  -0.35364  -0.34191  -0.32186
  Beta  occ. eigenvalues --   -0.30532  -0.29040  -0.24350  -0.24158  -0.21531
  Beta  occ. eigenvalues --   -0.17378  -0.16230
  Beta virt. eigenvalues --    0.21343   0.29442   0.32491   0.33998   0.35800
  Beta virt. eigenvalues --    0.38175   0.38270   0.39138   0.40264   0.40829
  Beta virt. eigenvalues --    0.41528   0.42255   0.42649   0.43529   0.43691
  Beta virt. eigenvalues --    0.44396   0.44674   0.46162   0.46755   0.47089
  Beta virt. eigenvalues --    0.47880   0.48759   0.50951   0.51484   0.51679
  Beta virt. eigenvalues --    0.53059   0.54618   0.56921   0.58567   0.59929
  Beta virt. eigenvalues --    0.63965   0.64817   0.65568   0.69020   0.70168
  Beta virt. eigenvalues --    0.72425   0.75345   0.75604   0.77438   0.81371
  Beta virt. eigenvalues --    0.82740   0.83449   0.85012   0.86239   0.87468
  Beta virt. eigenvalues --    0.88879   0.89384   0.89459   0.90421   0.90761
  Beta virt. eigenvalues --    0.91694   0.92395   0.93034   0.94879   0.96084
  Beta virt. eigenvalues --    0.96638   0.98167   0.99263   0.99700   1.02822
  Beta virt. eigenvalues --    1.04055   1.05741   1.06602   1.07699   1.08045
  Beta virt. eigenvalues --    1.09040   1.10363   1.10546   1.11962   1.12184
  Beta virt. eigenvalues --    1.13489   1.14813   1.16609   1.17998   1.18817
  Beta virt. eigenvalues --    1.19787   1.21209   1.23758   1.24110   1.24642
  Beta virt. eigenvalues --    1.25160   1.25569   1.26341   1.27311   1.27486
  Beta virt. eigenvalues --    1.27965   1.28842   1.29677   1.30571   1.31073
  Beta virt. eigenvalues --    1.31312   1.32193   1.33859   1.34232   1.34791
  Beta virt. eigenvalues --    1.36168   1.37945   1.38356   1.39468   1.41664
  Beta virt. eigenvalues --    1.42218   1.42685   1.45579   1.49968   1.51190
  Beta virt. eigenvalues --    1.52351   1.52659   1.53642   1.55943   1.57397
  Beta virt. eigenvalues --    1.58548   1.59807   1.60888   1.62399   1.64041
  Beta virt. eigenvalues --    1.66138   1.66970   1.67701   1.71979   1.73505
  Beta virt. eigenvalues --    1.75465   1.77633   1.80139   1.80988   1.82219
  Beta virt. eigenvalues --    1.83229   1.84233   1.84809   1.86899   1.87642
  Beta virt. eigenvalues --    1.88484   1.90310   1.91896   1.94428   1.99826
  Beta virt. eigenvalues --    2.03118   2.06081   2.09253   2.11775   2.14709
  Beta virt. eigenvalues --    2.15461   2.18635   2.19188   2.20840   2.20911
  Beta virt. eigenvalues --    2.23795   2.25504   2.26869   2.27349   2.28779
  Beta virt. eigenvalues --    2.29299   2.31077   2.33093   2.33696   2.35155
  Beta virt. eigenvalues --    2.36052   2.38122   2.39071   2.40741   2.42099
  Beta virt. eigenvalues --    2.42849   2.45757   2.47100   2.47687   2.50662
  Beta virt. eigenvalues --    2.51876   2.53500   2.54154   2.55052   2.56011
  Beta virt. eigenvalues --    2.57292   2.59289   2.60890   2.61535   2.63385
  Beta virt. eigenvalues --    2.66609   2.67519   2.68354   2.69265   2.70424
  Beta virt. eigenvalues --    2.71893   2.73303   2.74898   2.75417   2.79150
  Beta virt. eigenvalues --    2.81746   2.82649   2.84033   2.85503   2.86383
  Beta virt. eigenvalues --    2.87025   2.88756   2.90470   2.94208   2.94470
  Beta virt. eigenvalues --    2.94765   2.98493   3.00960   3.02559   3.05081
  Beta virt. eigenvalues --    3.09340   3.10258   3.13485   3.14042   3.16854
  Beta virt. eigenvalues --    3.17111   3.23651   3.27126   3.31612   3.32714
  Beta virt. eigenvalues --    3.37173   3.42524   3.46666   3.47686   3.52097
  Beta virt. eigenvalues --    3.53695   3.57286   3.57912   3.62394   3.86912
  Beta virt. eigenvalues --    3.93740   4.39622   4.54769   4.62535   4.67347
  Beta virt. eigenvalues --    4.74518   4.77152   4.78083   4.81168   4.81931
  Beta virt. eigenvalues --    4.83337   4.91204   4.92500   4.98955   5.06589
  Beta virt. eigenvalues --    5.12412   5.22943   5.37607   5.82093
          Condensed to atoms (all electrons):
               1          2          3          4          5          6
     1  C    5.121176   0.310660   0.456251  -0.070510  -0.091336   0.003316
     2  C    0.310660   5.153145  -0.032113  -0.014215   0.004924  -0.000043
     3  C    0.456251  -0.032113   4.447932   0.449631   0.398007  -0.048577
     4  O   -0.070510  -0.014215   0.449631   8.384867  -0.073894   0.000030
     5  C   -0.091336   0.004924   0.398007  -0.073894   4.951240   0.229126
     6  O    0.003316  -0.000043  -0.048577   0.000030   0.229126   8.438444
     7  C   -0.009393  -0.000457  -0.041707   0.004279   0.481544  -0.062425
     8  O   -0.000114   0.000001   0.001980  -0.000008  -0.058488  -0.002677
     9  C   -0.032066   0.002394  -0.012715  -0.000125  -0.039866   0.001863
    10  O    0.003637  -0.000044  -0.000042  -0.000000   0.003880  -0.000009
    11  C    0.540147  -0.048484  -0.033559   0.003996  -0.011906  -0.000092
    12  C   -0.042564  -0.015480   0.002077  -0.000041  -0.000381   0.000001
    13  H   -0.039079   0.384601  -0.001164   0.000363  -0.000123   0.000000
    14  H   -0.043156   0.390011  -0.003038   0.017649   0.000837  -0.000006
    15  H   -0.044204   0.387788   0.000805   0.000327   0.000026   0.000000
    16  C   -0.000472  -0.000003  -0.005433  -0.012740  -0.047053   0.215843
    17  H   -0.000177   0.000020  -0.000538   0.013319  -0.006891  -0.033944
    18  H    0.000116  -0.000001   0.000417   0.000361  -0.001147  -0.040835
    19  H    0.000007  -0.000000  -0.000033   0.000269   0.004712  -0.036839
    20  C    0.000036  -0.000000  -0.000110   0.000001  -0.005838   0.000623
    21  H   -0.000020   0.000000  -0.000140   0.000000   0.002881   0.000576
    22  H   -0.000001   0.000000   0.000004  -0.000000  -0.000037  -0.000017
    23  H   -0.000006   0.000000   0.000031  -0.000000  -0.000045   0.000016
    24  H    0.000055  -0.002165   0.000225  -0.000000  -0.000024  -0.000000
    25  H    0.001925   0.000109   0.000001   0.000000  -0.000041   0.000000
    26  C   -0.001487  -0.000496   0.000101   0.000001  -0.000033  -0.000000
    27  H   -0.000083  -0.000534  -0.000017   0.000000  -0.000001   0.000000
    28  C   -0.000006  -0.000001  -0.000000  -0.000000   0.000002  -0.000000
    29  C    0.000154   0.000024   0.000009   0.000000  -0.000005  -0.000000
    30  H    0.000000  -0.000000   0.000000   0.000000  -0.000000   0.000000
    31  H   -0.000002  -0.000001   0.000000  -0.000000  -0.000004   0.000000
    32  C    0.000000   0.000000  -0.000000   0.000000   0.000000  -0.000000
    33  H    0.000000  -0.000002   0.000000   0.000000  -0.000000   0.000000
    34  H    0.000000  -0.000000   0.000000   0.000000  -0.000000  -0.000000
    35  H    0.000000   0.000000  -0.000000  -0.000000  -0.000000   0.000000
    36  H    0.000000   0.000000  -0.000000  -0.000000   0.000000   0.000000
               7          8          9         10         11         12
     1  C   -0.009393  -0.000114  -0.032066   0.003637   0.540147  -0.042564
     2  C   -0.000457   0.000001   0.002394  -0.000044  -0.048484  -0.015480
     3  C   -0.041707   0.001980  -0.012715  -0.000042  -0.033559   0.002077
     4  O    0.004279  -0.000008  -0.000125  -0.000000   0.003996  -0.000041
     5  C    0.481544  -0.058488  -0.039866   0.003880  -0.011906  -0.000381
     6  O   -0.062425  -0.002677   0.001863  -0.000009  -0.000092   0.000001
     7  C    4.971793   0.225129   0.400431  -0.074733  -0.093534   0.004191
     8  O    0.225129   8.432640  -0.049685  -0.000722   0.003647  -0.000045
     9  C    0.400431  -0.049685   4.437948   0.451041   0.440363  -0.032556
    10  O   -0.074733  -0.000722   0.451041   8.388217  -0.077044  -0.006970
    11  C   -0.093534   0.003647   0.440363  -0.077044   5.208181   0.300484
    12  C    0.004191  -0.000045  -0.032556  -0.006970   0.300484   5.120769
    13  H    0.000028  -0.000000  -0.000042   0.000000  -0.001617   0.000243
    14  H   -0.000030   0.000000  -0.000027   0.000000   0.002189   0.000173
    15  H   -0.000017  -0.000000   0.000105  -0.000000  -0.001178  -0.002414
    16  C   -0.002979   0.000310  -0.000027   0.000001   0.000025  -0.000000
    17  H   -0.000382   0.000006   0.000019  -0.000000  -0.000012   0.000000
    18  H    0.003091   0.000151  -0.000081  -0.000000  -0.000013   0.000000
    19  H   -0.000015  -0.000011   0.000003  -0.000000  -0.000001   0.000000
    20  C   -0.048542   0.218791  -0.005353  -0.005844  -0.000392   0.000001
    21  H   -0.002251  -0.039632   0.000506   0.000229   0.000121  -0.000000
    22  H    0.005221  -0.036523  -0.000077   0.000122   0.000007  -0.000000
    23  H   -0.006160  -0.034771   0.000437   0.010287  -0.000285   0.000004
    24  H    0.000062   0.000000   0.001688   0.000288  -0.055619   0.406903
    25  H    0.000529  -0.000003  -0.003183   0.010821  -0.040957   0.400638
    26  C    0.000010   0.000001  -0.003511  -0.000252  -0.063597   0.337446
    27  H    0.000004  -0.000000   0.000120  -0.000020   0.000233  -0.039960
    28  C   -0.000057   0.000000  -0.000057  -0.009919   0.001009  -0.006981
    29  C    0.000003   0.000000   0.000795   0.000574  -0.003411  -0.039960
    30  H    0.000000   0.000000   0.000027   0.000143  -0.000095   0.000466
    31  H    0.000158  -0.000003  -0.000883   0.020348  -0.001134  -0.001990
    32  C   -0.000000   0.000000  -0.000015   0.000002  -0.000170   0.003568
    33  H    0.000000   0.000000  -0.000000   0.000000  -0.000006   0.000095
    34  H    0.000000   0.000000   0.000000  -0.000000  -0.000008  -0.000098
    35  H    0.000000  -0.000000   0.000001   0.000000   0.000037  -0.000083
    36  H    0.000000  -0.000000  -0.000027   0.000022   0.000053   0.000223
              13         14         15         16         17         18
     1  C   -0.039079  -0.043156  -0.044204  -0.000472  -0.000177   0.000116
     2  C    0.384601   0.390011   0.387788  -0.000003   0.000020  -0.000001
     3  C   -0.001164  -0.003038   0.000805  -0.005433  -0.000538   0.000417
     4  O    0.000363   0.017649   0.000327  -0.012740   0.013319   0.000361
     5  C   -0.000123   0.000837   0.000026  -0.047053  -0.006891  -0.001147
     6  O    0.000000  -0.000006   0.000000   0.215843  -0.033944  -0.040835
     7  C    0.000028  -0.000030  -0.000017  -0.002979  -0.000382   0.003091
     8  O   -0.000000   0.000000  -0.000000   0.000310   0.000006   0.000151
     9  C   -0.000042  -0.000027   0.000105  -0.000027   0.000019  -0.000081
    10  O    0.000000   0.000000  -0.000000   0.000001  -0.000000  -0.000000
    11  C   -0.001617   0.002189  -0.001178   0.000025  -0.000012  -0.000013
    12  C    0.000243   0.000173  -0.002414  -0.000000   0.000000   0.000000
    13  H    0.577059  -0.024663  -0.036997  -0.000000   0.000001   0.000000
    14  H   -0.024663   0.470865  -0.022609   0.000005  -0.000004  -0.000000
    15  H   -0.036997  -0.022609   0.580152   0.000000  -0.000000  -0.000000
    16  C   -0.000000   0.000005   0.000000   4.859660   0.389442   0.379429
    17  H    0.000001  -0.000004  -0.000000   0.389442   0.499995  -0.038629
    18  H    0.000000  -0.000000  -0.000000   0.379429  -0.038629   0.602768
    19  H    0.000000  -0.000000   0.000000   0.390239  -0.027687  -0.035011
    20  C    0.000000  -0.000000  -0.000000  -0.000140   0.000000   0.000025
    21  H   -0.000000  -0.000000   0.000000   0.000020   0.000001  -0.000004
    22  H   -0.000000   0.000000   0.000000   0.000003  -0.000000  -0.000001
    23  H   -0.000000   0.000000  -0.000000   0.000000   0.000000   0.000000
    24  H   -0.000750   0.000041   0.002172   0.000000   0.000000  -0.000000
    25  H   -0.000033   0.000004   0.000062  -0.000000  -0.000000  -0.000000
    26  C   -0.000015  -0.000007  -0.000220  -0.000000  -0.000000   0.000000
    27  H    0.000892   0.000017   0.000059  -0.000000   0.000000  -0.000000
    28  C    0.000000   0.000000   0.000000   0.000000  -0.000000   0.000000
    29  C    0.000041  -0.000000   0.000004  -0.000000  -0.000000  -0.000000
    30  H    0.000000  -0.000000  -0.000000   0.000000   0.000000  -0.000000
    31  H   -0.000000   0.000000  -0.000000   0.000000   0.000000  -0.000000
    32  C    0.000001  -0.000000  -0.000000   0.000000  -0.000000   0.000000
    33  H    0.000002   0.000000  -0.000000   0.000000  -0.000000  -0.000000
    34  H    0.000000   0.000000   0.000000  -0.000000  -0.000000   0.000000
    35  H   -0.000001   0.000000   0.000000   0.000000   0.000000  -0.000000
    36  H   -0.000000  -0.000000   0.000000   0.000000   0.000000  -0.000000
              19         20         21         22         23         24
     1  C    0.000007   0.000036  -0.000020  -0.000001  -0.000006   0.000055
     2  C   -0.000000  -0.000000   0.000000   0.000000   0.000000  -0.002165
     3  C   -0.000033  -0.000110  -0.000140   0.000004   0.000031   0.000225
     4  O    0.000269   0.000001   0.000000  -0.000000  -0.000000  -0.000000
     5  C    0.004712  -0.005838   0.002881  -0.000037  -0.000045  -0.000024
     6  O   -0.036839   0.000623   0.000576  -0.000017   0.000016  -0.000000
     7  C   -0.000015  -0.048542  -0.002251   0.005221  -0.006160   0.000062
     8  O   -0.000011   0.218791  -0.039632  -0.036523  -0.034771   0.000000
     9  C    0.000003  -0.005353   0.000506  -0.000077   0.000437   0.001688
    10  O   -0.000000  -0.005844   0.000229   0.000122   0.010287   0.000288
    11  C   -0.000001  -0.000392   0.000121   0.000007  -0.000285  -0.055619
    12  C    0.000000   0.000001  -0.000000  -0.000000   0.000004   0.406903
    13  H    0.000000   0.000000  -0.000000  -0.000000  -0.000000  -0.000750
    14  H   -0.000000  -0.000000  -0.000000   0.000000   0.000000   0.000041
    15  H    0.000000  -0.000000   0.000000   0.000000  -0.000000   0.002172
    16  C    0.390239  -0.000140   0.000020   0.000003   0.000000   0.000000
    17  H   -0.027687   0.000000   0.000001  -0.000000   0.000000   0.000000
    18  H   -0.035011   0.000025  -0.000004  -0.000001   0.000000  -0.000000
    19  H    0.574162   0.000003  -0.000003  -0.000000  -0.000000  -0.000000
    20  C    0.000003   4.837672   0.382765   0.390809   0.390044   0.000000
    21  H   -0.000003   0.382765   0.592828  -0.033583  -0.040154   0.000000
    22  H   -0.000000   0.390809  -0.033583   0.572250  -0.029917   0.000000
    23  H   -0.000000   0.390044  -0.040154  -0.029917   0.525786  -0.000000
    24  H   -0.000000   0.000000   0.000000   0.000000  -0.000000   0.570318
    25  H   -0.000000  -0.000001  -0.000000   0.000000   0.000009  -0.024149
    26  C    0.000000   0.000000  -0.000000  -0.000000  -0.000000  -0.047201
    27  H   -0.000000   0.000000  -0.000000  -0.000000   0.000000  -0.002645
    28  C   -0.000000  -0.000000   0.000000   0.000000   0.000001   0.000063
    29  C    0.000000  -0.000000   0.000000   0.000000  -0.000000   0.001381
    30  H    0.000000   0.000000  -0.000000  -0.000000  -0.000000   0.000052
    31  H    0.000000   0.000001  -0.000000  -0.000000  -0.000000   0.000056
    32  C    0.000000  -0.000000   0.000000   0.000000  -0.000000  -0.000106
    33  H    0.000000  -0.000000  -0.000000  -0.000000  -0.000000  -0.000011
    34  H    0.000000  -0.000000   0.000000   0.000000  -0.000000   0.000011
    35  H   -0.000000  -0.000000  -0.000000  -0.000000   0.000000  -0.000002
    36  H   -0.000000  -0.000000  -0.000000   0.000000   0.000000  -0.000008
              25         26         27         28         29         30
     1  C    0.001925  -0.001487  -0.000083  -0.000006   0.000154   0.000000
     2  C    0.000109  -0.000496  -0.000534  -0.000001   0.000024  -0.000000
     3  C    0.000001   0.000101  -0.000017  -0.000000   0.000009   0.000000
     4  O    0.000000   0.000001   0.000000  -0.000000   0.000000   0.000000
     5  C   -0.000041  -0.000033  -0.000001   0.000002  -0.000005  -0.000000
     6  O    0.000000  -0.000000   0.000000  -0.000000  -0.000000   0.000000
     7  C    0.000529   0.000010   0.000004  -0.000057   0.000003   0.000000
     8  O   -0.000003   0.000001  -0.000000   0.000000   0.000000   0.000000
     9  C   -0.003183  -0.003511   0.000120  -0.000057   0.000795   0.000027
    10  O    0.010821  -0.000252  -0.000020  -0.009919   0.000574   0.000143
    11  C   -0.040957  -0.063597   0.000233   0.001009  -0.003411  -0.000095
    12  C    0.400638   0.337446  -0.039960  -0.006981  -0.039960   0.000466
    13  H   -0.000033  -0.000015   0.000892   0.000000   0.000041   0.000000
    14  H    0.000004  -0.000007   0.000017   0.000000  -0.000000  -0.000000
    15  H    0.000062  -0.000220   0.000059   0.000000   0.000004  -0.000000
    16  C   -0.000000  -0.000000  -0.000000   0.000000  -0.000000   0.000000
[...]
 033396,-0.00088543,0.00034810,0.00077554,0.00032362,-0.10807585,-0.045
 72555,-0.12002435,-0.00242851,-0.00462546,-0.00394550,0.01887153,0.008
 55055,0.01156350,0.11647758,0.04973198,0.12728564,-0.00354409,-0.00508
 824,0.00281528,0.00017624,-0.00036936,-0.00003150,0.00274861,-0.002687
 77,-0.00107560,-0.00516734,0.00766109,0.00166874,0.00537518,0.00228118
 ,-0.00255964,0.00158057,-0.00238563,-0.00035111,-0.00612000,-0.0027602
 7,0.00270552,0.00194019,-0.00176285,-0.00069174,0.00212539,-0.00705121
 ,-0.00059139,-0.00664782,0.01004702,0.00213989,0.00833203,0.00298460,-
 0.00022855,0.01286181,0.00625235,-0.01086996,0.00015286,0.00005003,0.0
 0006267,-0.00085032,-0.00131804,0.00056885,0.00046996,-0.00010953,-0.0
 0034710,0.00021108,0.00169848,0.00000538,0.00087546,0.00003212,-0.0011
 3554,0.00000885,-0.00036537,0.00021633,-0.00018144,-0.00038941,-0.0000
 2892,-0.00158581,0.00008721,0.00059921,0.00043432,-0.00003834,0.000067
 03,0.00024796,0.00005060,-0.00019846,-0.00041140,-0.00070065,-0.000558
 14,-0.00308649,-0.00136144,-0.00255438,0.00070314,-0.00016037,-0.00125
 491,-0.05942548,0.04605110,-0.06180526,-0.00801632,-0.00296791,0.00594
 834,0.00628328,-0.00019944,-0.00019751,-0.09762945,-0.08107947,-0.0154
 6311,-0.00059941,-0.00082691,-0.00052792,0.00121709,0.00086438,-0.0002
 4739,0.55962222,0.00258624,0.00431942,-0.00236759,-0.00006784,0.000179
 24,-0.00005191,-0.00180538,0.00256747,0.00075393,0.00387621,-0.0059649
 7,-0.00132640,-0.00433485,-0.00193255,0.00188070,-0.00028490,0.0016278
 1,-0.00004342,0.00354302,0.00188366,-0.00253272,-0.00110946,0.00163371
 ,0.00060000,0.00039302,0.00238877,0.00093802,0.00328031,-0.00525556,-0
 .00139551,-0.00389186,-0.00036486,0.00462727,0.00504087,-0.00201946,-0
 .00235124,-0.00008100,-0.00001796,0.00010809,0.00064073,0.00089430,-0.
 00037438,-0.00041570,0.00012402,0.00029897,-0.00028195,-0.00098532,0.0
 0029865,-0.00064253,-0.00005335,0.00080885,-0.00003147,0.00025050,-0.0
 0020988,0.00020275,0.00026417,-0.00002559,0.00110832,-0.00020283,-0.00
 057707,-0.00030937,0.00003638,-0.00002695,-0.00014471,0.00001502,0.000
 14225,0.00027171,0.00048643,0.00042035,0.00051860,0.00056334,0.0002507
 8,-0.00072202,-0.00017372,0.00101738,0.05121271,-0.03819841,0.04940994
 ,0.00089110,0.00009924,0.00406289,-0.02111710,-0.01564376,-0.02646769,
 -0.07403239,-0.06585724,-0.07614619,0.00052223,0.00022098,0.00034828,0
 .00123230,-0.00551936,-0.00149539,-0.01973380,0.61504878,-0.00373948,-
 0.00385158,0.00156671,0.00006766,-0.00062806,-0.00046718,0.00329242,-0
 .00103492,-0.00002167,-0.00365990,0.00482630,0.00081018,0.00311118,0.0
 0091068,-0.00166795,0.00123056,-0.00148195,-0.00027960,-0.00424875,-0.
 00165085,0.00118832,0.00122604,-0.00114136,-0.00028555,0.00203822,-0.0
 0567287,0.00078163,-0.00447762,0.00685238,0.00093592,0.00242639,0.0041
 6185,-0.00309540,-0.00846159,-0.00294115,0.00977225,0.00014581,0.00020
 646,0.00026911,-0.00044568,-0.00075756,0.00036762,0.00028878,0.0002412
 3,-0.00031091,0.00009748,0.00109255,0.00012061,0.00053022,0.00001059,-
 0.00069490,-0.00000520,-0.00021777,0.00010257,-0.00010004,-0.00024193,
 -0.00003235,-0.00092805,0.00011624,0.00041736,0.00025403,-0.00001850,0
 .00002782,0.00015654,0.00002992,-0.00011992,-0.00025682,-0.00043920,-0
 .00034669,0.00159497,0.00063297,0.00208958,0.00132270,0.00045500,0.000
 42591,0.01137760,-0.03917164,0.01057504,0.00790471,0.00030858,-0.00574
 278,-0.00703473,-0.00501390,-0.00354033,-0.08759933,-0.00618090,-0.197
 51662,-0.00048226,0.00173327,0.00055891,0.00110070,-0.00006463,0.00054
 478,-0.02934186,-0.01410450,0.54888943,0.00254044,0.00296717,-0.001127
 89,-0.00007666,0.00031258,0.00025356,-0.00242339,0.00094167,0.00017161
 ,0.00290916,-0.00378366,-0.00068744,-0.00248958,-0.00084194,0.00131994
 ,-0.00093733,0.00118363,0.00018679,0.00327177,0.00130470,-0.00078146,-
 0.00093178,0.00099874,0.00020774,-0.00170319,0.00427991,-0.00055107,0.
 00344743,-0.00521299,-0.00092971,-0.00372959,-0.00339408,0.00080839,-0
 .00060259,0.00055507,0.00101898,-0.00007180,-0.00001602,-0.00015606,0.
 00037863,0.00062046,-0.00026072,-0.00020705,-0.00011138,0.00018889,-0.
 00008303,-0.00086332,-0.00006724,-0.00042769,-0.00000869,0.00055154,0.
 00000047,0.00017100,-0.00008739,0.00008767,0.00019333,0.00002234,0.000
 72953,-0.00011658,-0.00034965,-0.00020215,0.00001603,-0.00001964,-0.00
 011459,-0.00000958,0.00009507,0.00019797,0.00033759,0.00027521,0.00008
 685,0.00023721,-0.00013633,-0.00054091,-0.00026372,0.00023967,-0.01657
 727,0.01825379,-0.01515525,-0.00033820,0.00106166,-0.00039896,-0.00122
 151,-0.00094207,-0.00320827,0.01998931,-0.03991993,0.01497628,0.000235
 51,-0.00049204,-0.00070722,-0.00030142,-0.00092052,-0.00035659,-0.0555
 5330,0.03218486,0.00439922,0.05596863,0.00822250,0.01007198,-0.0042876
 6,-0.00025388,0.00104519,0.00065700,-0.00736509,0.00366502,0.00093963,
 0.00979830,-0.01331369,-0.00258429,-0.00895729,-0.00323961,0.00457820,
 -0.00310242,0.00416344,0.00065330,0.01117769,0.00461881,-0.00359981,-0
 .00331467,0.00337241,0.00090869,-0.00497398,0.01400624,-0.00082832,0.0
 1185274,-0.01802863,-0.00330393,-0.01229006,-0.00939032,0.00358595,-0.
 00160711,0.00124479,0.00157163,-0.00032090,-0.00017341,-0.00041147,0.0
 0135899,0.00221203,-0.00094429,-0.00078345,-0.00027653,0.00067269,-0.0
 0031206,-0.00301089,-0.00015312,-0.00151005,-0.00004104,0.00195521,-0.
 00000453,0.00061676,-0.00033509,0.00030545,0.00067823,0.00006831,0.002
 64423,-0.00032196,-0.00117084,-0.00072850,0.00006144,-0.00008689,-0.00
 041268,-0.00005373,0.00034030,0.00070249,0.00120280,0.00097245,0.00029
 562,0.00089392,-0.00058236,-0.00203401,-0.00058373,0.00096089,-0.02277
 245,0.02982512,-0.02084341,-0.00048946,0.00186080,0.00020908,-0.002757
 33,0.00000464,-0.00245464,0.02878050,-0.04123559,0.02261762,0.00074360
 ,0.00010030,-0.00042111,-0.00148910,-0.00068005,0.00012941,0.03103456,
 -0.31987441,-0.02854846,-0.03344917,0.34658018,0.00380709,0.00440759,-
 0.00172598,-0.00008562,0.00048049,0.00039181,-0.00353516,0.00143424,0.
 00027605,0.00431466,-0.00568326,-0.00106627,-0.00374646,-0.00127889,0.
 00197720,-0.00141219,0.00177570,0.00027608,0.00491390,0.00200442,-0.00
 125907,-0.00142220,0.00144586,0.00032260,-0.00249714,0.00636658,-0.000
 74035,0.00511158,-0.00782374,-0.00142099,-0.00550489,-0.00488220,0.001
 28007,-0.00060466,0.00090474,0.00104695,-0.00014337,-0.00006988,-0.000
 20162,0.00056849,0.00093693,-0.00040074,-0.00032704,-0.00016614,0.0002
 4700,-0.00011771,-0.00129535,-0.00008414,-0.00063941,-0.00001621,0.000
 83356,0.00000032,0.00026513,-0.00013880,0.00012383,0.00028926,0.000032
 00,0.00111413,-0.00014837,-0.00050171,-0.00030886,0.00002465,-0.000034
 35,-0.00017716,-0.00002269,0.00014357,0.00030162,0.00051135,0.00041396
 ,0.00002828,0.00034660,-0.00033078,-0.00087864,-0.00039266,0.00034450,
 -0.02311580,0.02728127,-0.02185547,-0.00100928,0.00139775,0.00010774,-
 0.00496659,-0.00085250,-0.00280954,0.03035967,-0.05344336,0.01946972,0
 .00030452,0.00033623,-0.00015776,-0.00050891,-0.00158388,0.00010823,0.
 00477752,-0.02714505,-0.05475390,-0.00080163,0.03244350,0.05618076,0.0
 0272409,0.00281071,-0.00112990,-0.00006919,0.00047320,0.00031949,-0.00
 250724,0.00061665,0.00015949,0.00278285,-0.00363156,-0.00066511,-0.002
 29720,-0.00067877,0.00128712,-0.00130500,0.00121988,0.00033656,0.00358
 815,0.00137964,-0.00083874,-0.00108226,0.00077760,0.00019744,-0.002113
 36,0.00513612,-0.00053493,0.00387352,-0.00597785,-0.00088165,-0.003237
 14,-0.00355355,0.00069022,0.00084817,0.00164721,-0.00124632,-0.0001195
 3,-0.00015750,-0.00021366,0.00035541,0.00063080,-0.00029120,-0.0002058
 1,-0.00018246,0.00021305,-0.00002118,-0.00096439,-0.00018875,-0.000415
 95,0.00000212,0.00055817,0.00001243,0.00018420,-0.00006991,0.00004543,
 0.00019849,0.00004202,0.00077374,-0.00001959,-0.00026071,-0.00021068,0
 .00001437,-0.00003646,-0.00013644,-0.00004388,0.00009860,0.00021642,0.
 00035579,0.00027058,-0.00054857,-0.00012881,-0.00087238,-0.00082769,-0
 .00027593,-0.00018623,-0.02444027,0.02520561,-0.02343782,-0.00135050,-
 0.00007641,0.00107788,0.00139748,0.00083747,0.00069473,0.00489608,-0.0
 2116584,0.02623829,0.00022573,-0.00090635,-0.00086570,-0.00058555,-0.0
 0004961,-0.00016205,-0.29247876,0.04959557,0.05310252,-0.00152078,-0.0
 0048193,0.00060104,0.32125707,0.00047333,0.00002021,0.00029084,0.00001
 378,0.00011478,0.00017883,-0.00068537,-0.00045530,-0.00025595,0.000076
 27,0.00025702,0.00016533,0.00034204,0.00031797,-0.00002539,-0.00028488
 ,-0.00003065,0.00007682,0.00025515,-0.00005451,0.00058545,-0.00002302,
 -0.00007058,-0.00012861,-0.00088845,0.00097236,-0.00068599,0.00026115,
 -0.00037348,0.00003878,-0.00023011,-0.00176340,-0.00078161,0.00000261,
 0.00134925,0.00009233,-0.00001274,-0.00000208,-0.00012860,-0.00005358,
 -0.00003964,0.00000893,0.00004325,-0.00011035,-0.00000559,0.00005274,-
 0.00003348,-0.00012333,0.00002793,0.00001286,-0.00003103,0.00001013,-0
 .00001196,0.00003219,-0.00002504,-0.00000523,0.00001663,-0.00005665,-0
 .00000300,0.00002094,0.00001538,-0.00000516,0.00000387,0.,-0.00000540,
 -0.00000620,-0.00000564,-0.00001555,-0.00001665,-0.00047173,-0.0001986
 3,-0.00035237,-0.00004766,-0.00022254,-0.00019458,-0.02951678,0.033628
 80,-0.02751018,-0.00025163,0.00088376,-0.00036922,0.00055346,0.0008235
 8,0.00082710,0.01890669,-0.03086444,0.03233992,0.00001971,-0.00025741,
 -0.00080100,-0.00011385,-0.00005054,0.00010369,0.04973887,-0.06467769,
 -0.01211233,0.03285985,-0.00421388,-0.00688414,-0.05454568,0.06210123,
 0.00122296,0.00109821,-0.00033389,-0.00002881,0.00023656,0.00018367,-0
 .00118858,0.00008471,-0.00005136,0.00108526,-0.00130723,-0.00018282,-0
 .00077738,-0.00014189,0.00048822,-0.00058718,0.00045909,0.00016717,0.0
 0145022,0.00049956,-0.00015730,-0.00041870,0.00028125,0.00005300,-0.00
 103998,0.00223141,-0.00043307,0.00151425,-0.00239629,-0.00027624,-0.00
 093273,-0.00185149,0.00029819,0.00176745,0.00185182,-0.00226108,-0.000
 04737,-0.00006645,-0.00012965,0.00011397,0.00022871,-0.00010820,-0.000
 06755,-0.00012150,0.00009479,0.00000257,-0.00037902,-0.00013073,-0.000
 15085,0.00000647,0.00020223,0.00000866,0.00006194,-0.00000968,0.000013
 21,0.00007437,0.00002363,0.00027583,-0.00002102,-0.00010733,-0.0000741
 4,0.00000435,-0.00000922,-0.00005213,-0.00001736,0.00003549,0.00007981
 ,0.00013326,0.00010091,-0.00073779,-0.00020055,-0.00090328,-0.00036643
 ,-0.00021206,-0.00019027,-0.02217109,0.02052509,-0.01929031,-0.0017071
 9,-0.00002709,0.00115137,0.00113724,0.00120270,0.00080411,-0.00936547,
 -0.01619264,0.02518455,0.00035825,-0.00064328,-0.00051463,-0.00030709,
 0.00030275,-0.00010783,0.05404099,-0.01103681,-0.06196189,0.00249388,0
 .00025800,-0.00132309,-0.05545160,0.01227919,0.06559860,0.00028461,0.0
 0029926,-0.00015614,-0.00003494,0.00006193,-0.00001125,-0.00027105,0.0
 0011862,0.00011552,0.00039848,-0.00058639,-0.00011044,-0.00038383,-0.0
 0010692,0.00021186,-0.00032205,0.00022879,0.00012231,0.00070950,0.0002
 5037,-0.00018822,-0.00022847,0.00007676,0.00007989,-0.00052852,0.00105
 142,0.00001635,0.00077065,-0.00124333,-0.00013625,-0.00093349,-0.00041
 948,-0.00070073,-0.00297318,-0.00049462,0.00222170,-0.00000811,-0.0000
 2283,-0.00003173,0.00006779,0.00012709,-0.00005555,-0.00002968,-0.0000
 0731,0.00004512,-0.00000021,-0.00019756,-0.00009614,-0.00007268,0.0000
 0591,0.00009862,0.00000630,0.00002835,0.00000368,0.00000436,0.00003728
 ,0.00001652,0.00014701,0.00000801,-0.00004252,-0.00003699,0.00000291,-
 0.00000546,-0.00002975,-0.00001503,0.00001803,0.00004114,0.00006938,0.
 00004941,0.00035239,0.00015507,0.00025422,-0.00001187,0.00005193,0.000
 09695,0.00243136,-0.00433482,-0.00061781,0.00135424,0.00037819,-0.0012
 2980,-0.00041491,0.00080007,0.00103296,0.00321252,0.01415150,-0.025142
 45,0.00007076,0.00021582,0.00018437,-0.00021509,0.00024767,0.00008195,
 -0.06432142,-0.02734194,0.05534990,0.00032984,0.00222216,-0.00474722,-
 0.00753474,-0.01634161,0.02956185,0.06792149,-0.00078647,-0.00137981,0
 .00090969,0.00005864,-0.00007684,0.00012963,0.00040685,-0.00089492,-0.
 00038001,-0.00129723,0.00210890,0.00049749,0.00157319,0.00072693,-0.00
 066076,0.00019218,-0.00062129,-0.00005324,-0.00133755,-0.00067705,0.00
 111036,0.00045328,-0.00053480,-0.00027431,-0.00012993,-0.00104189,-0.0
 0059933,-0.00143372,0.00220858,0.00049209,0.00125966,-0.00024769,-0.00
 148935,-0.00084339,0.00024254,0.00082544,0.00002307,0.00001411,-0.0000
 4689,-0.00024147,-0.00034819,0.00013623,0.00015434,-0.00005905,-0.0001
 6291,0.00009604,0.00040228,-0.00006050,0.00023964,0.00001421,-0.000301
 58,0.00000794,-0.00009223,0.00006771,-0.00006810,-0.00010155,0.0000021
 3,-0.00042600,0.00004346,0.00019204,0.00011478,-0.00001295,0.00001434,
 0.00005928,0.00000370,-0.00005419,-0.00010323,-0.00018656,-0.00015335,
 -0.00016495,-0.00018014,0.00002890,0.00024410,0.00004119,-0.00039799,-
 0.02414708,0.02743292,-0.02138321,-0.00082278,0.00054516,0.00009535,0.
 00008970,0.00102556,-0.00019771,0.03051607,-0.02108471,0.01116783,-0.0
 0034020,-0.00009251,-0.00034461,0.00015014,-0.00020028,0.00004982,-0.0
 2783399,-0.10765579,0.10222333,-0.00849918,-0.01240489,0.02923156,0.00
 210828,0.00320243,-0.00705567,0.03077463,0.11034461,0.00133690,0.00109
 135,-0.00031156,-0.00005046,0.00027436,0.00022204,-0.00130039,0.000018
 49,-0.00001430,0.00120975,-0.00149305,-0.00019395,-0.00084119,-0.00016
 078,0.00058796,-0.00095159,0.00058381,0.00029275,0.00197612,0.00072057
 ,-0.00005013,-0.00060653,0.00019445,0.00006830,-0.00173216,0.00331728,
 -0.00063998,0.00211517,-0.00337015,-0.00038639,-0.00235586,-0.00254953
 ,-0.00137522,-0.00361292,-0.00004201,0.00319706,-0.00005611,-0.0000890
 4,-0.00018704,0.00014910,0.00030109,-0.00015602,-0.00006205,-0.0001217
 5,0.00008591,0.00003674,-0.00052694,-0.00025277,-0.00017863,0.00001727
 ,0.00024976,0.00001872,0.00007989,0.00000593,-0.00000444,0.00009498,0.
 00004213,0.00035986,0.00002238,-0.00008942,-0.00009383,0.00000358,-0.0
 0001713,-0.00007880,-0.00004262,0.00004371,0.00010781,0.00017388,0.000
 12133,0.00023040,0.00015447,0.00009185,-0.00028212,-0.00011204,-0.0001
 4122,-0.01930220,0.01898831,-0.01857774,0.00100406,0.00055652,-0.00110
 683,-0.00062359,0.00147332,0.00109529,0.02548705,-0.00761968,-0.005901
 03,0.00015985,0.00015144,0.00002303,-0.00057635,-0.00015973,0.00048515
 ,0.05469328,0.10269962,-0.24935262,-0.00129468,-0.00294854,0.00499897,
 0.00134150,0.00327256,-0.00582950,-0.05649459,-0.11357351,0.27268652,0
 .00161192,0.00205443,-0.00083847,-0.00007539,0.00024437,0.00010496,-0.
 00145644,0.00073245,0.00015814,0.00195037,-0.00266650,-0.00050852,-0.0
 0180959,-0.00070387,0.00094474,-0.00063598,0.00083648,0.00013367,0.002
 14041,0.00107868,-0.00068701,-0.00065240,0.00062292,0.00024027,-0.0008
 9758,0.00263345,-0.00018062,0.00175143,-0.00362779,-0.00034265,-0.0023
 0337,-0.00195855,0.00084530,0.00003748,0.00039872,-0.00049093,-0.00006
 481,-0.00004125,-0.00008563,0.00027965,0.00044226,-0.00018331,-0.00016
 740,-0.00006657,0.00016308,-0.00007322,-0.00060155,-0.00004806,-0.0003
 0249,-0.00000812,0.00039480,0.00000201,0.00012298,-0.00005940,0.000065
 66,0.00013718,0.00001541,0.00052447,-0.00007834,-0.00026302,-0.0001408
 9,0.00000948,-0.00000851,-0.00009451,-0.00001546,0.00006906,0.00014353
 ,0.00025676,0.00019620,-0.00011922,0.00050236,0.00000198,-0.00029788,-
 0.00014045,0.00074308,-0.00751697,0.00860016,-0.00761484,-0.00032183,0
 .00052823,0.00014879,-0.05349438,0.01088282,-0.02175612,0.00696993,-0.
 00640137,0.00441031,0.00307301,-0.01503880,0.02600277,0.00022103,0.015
 27856,-0.02412733,0.00025259,-0.00075229,-0.00023635,-0.00011940,0.000
 27130,0.00022331,0.00001125,-0.00009791,0.00034566,0.00024854,-0.00004
 655,0.00027217,0.05126046,0.00062089,0.00132806,-0.00078896,-0.0000056
 6,-0.00004366,-0.00012983,-0.00041904,0.00097106,0.00033006,0.00128313
 ,-0.00199546,-0.00049414,-0.00151218,-0.00073132,0.00062530,-0.0000099
 2,0.00054556,-0.00005395,0.00110630,0.00060725,-0.00095199,-0.00034669
 ,0.00057478,0.00021508,0.00033051,0.00060280,0.00055603,0.00107389,-0.
 00176042,-0.00050915,-0.00134652,0.00032196,0.00139067,-0.00088018,-0.
 00059296,-0.00032464,-0.00002790,0.00009834,0.00010686,0.00023663,0.00
 032502,-0.00008555,-0.00014726,0.00007481,0.00008743,-0.00010399,-0.00
 031602,0.00015250,-0.00022344,-0.00002293,0.00027616,-0.00001499,0.000
 08715,-0.00008421,0.00007409,0.00008953,-0.00001531,0.00037078,-0.0000
 5897,-0.00019192,-0.00010224,0.00000910,-0.00001078,-0.00004783,0.0000
 0862,0.00004991,0.00008736,0.00016244,0.00013580,0.00030705,0.00024661
 ,0.00015051,-0.00022059,0.00024602,0.00063757,0.02055392,-0.03092856,0
 .01605997,0.00361926,-0.00043852,-0.00143323,0.01129183,-0.11193446,0.
 11028764,-0.02112992,0.00529756,0.01476145,-0.00104866,0.00336070,-0.0
 0611764,-0.00009759,0.00663527,-0.01045729,0.00035640,0.00179398,0.001
 47269,0.00036563,0.00061824,-0.00019552,-0.00035360,-0.00021935,-0.000
 14908,-0.00025128,-0.00046345,-0.00138027,-0.01338820,0.12550123,0.003
 58172,0.00474083,-0.00229780,-0.00014769,0.00046263,0.00011881,-0.0029
 5167,0.00202085,0.00064135,0.00458344,-0.00656546,-0.00135245,-0.00453
 632,-0.00180856,0.00222946,-0.00143816,0.00204713,0.00033054,0.0052668
 8,0.00244316,-0.00221369,-0.00164508,0.00150918,0.00059658,-0.00185872
 ,0.00619796,0.00016667,0.00522464,-0.00878327,-0.00144212,-0.00565314,
 -0.00329073,0.00227175,-0.00053849,0.00000968,0.00031082,-0.00013752,-
 0.00010170,-0.00010221,0.00070473,0.00111311,-0.00045583,-0.00041974,-
 0.00006769,0.00038963,-0.00017655,-0.00146792,-0.00004920,-0.00074654,
 -0.00002461,0.00097152,-0.00000201,0.00031047,-0.00017067,0.00015302,0
 .00033557,0.00003019,0.00133566,-0.00010654,-0.00056155,-0.00035906,0.
 00002651,-0.00004484,-0.00022552,-0.00004567,0.00017221,0.00035249,0.0
 0061756,0.00047591,0.00026746,0.00064363,-0.00012477,-0.00081065,-0.00
 008886,0.00091792,0.00992948,-0.01170108,0.00782040,0.00105569,0.00022
 032,-0.00012494,-0.02006498,0.11371218,-0.25514121,-0.01045981,0.00513
 592,-0.00149433,-0.00274601,0.00892897,-0.01601304,0.00051682,0.008409
 42,-0.01241873,-0.00024904,-0.00098770,0.00074653,-0.00013190,-0.00001
 765,0.00035379,0.00010442,0.00007937,-0.00007454,0.00020508,0.00001516
 ,0.00028516,0.02201706,-0.12392217,0.27525270\\0.00298966,0.00447221,-
 0.00074229,0.00002142,0.00060555,0.00054397,-0.00349642,-0.00207135,0.
 00028158,0.00269018,-0.00223663,-0.00085427,-0.00340397,0.00156139,0.0
 0147006,-0.00073336,0.00140943,0.00017432,0.00540777,0.00046980,-0.000
 13136,-0.00117409,0.00061255,-0.00030651,-0.00135883,0.00436686,-0.002
 21904,0.00283778,-0.00446833,-0.00089114,-0.00381795,-0.00539109,0.001
 15893,-0.00003915,-0.00149750,0.00232838,0.00006875,0.00011001,-0.0003
 2248,0.00024620,0.00043020,-0.00012321,0.00003087,-0.00033072,0.000095
 95,-0.00008119,-0.00110959,0.00001344,-0.00023358,-0.00000595,0.000392
 93,0.00008248,0.00014524,-0.00009694,-0.00020233,0.00003811,0.00005963
 ,0.00076190,-0.00003263,-0.00051799,-0.00015141,-0.00002799,0.00002798
 ,-0.00017416,-0.00007239,0.00020431,0.00010738,0.00053705,0.00064646,0
 .00082087,0.00102566,0.00041501,-0.00042715,0.00014895,0.00121361,0.06
 346396,-0.06758116,0.05314005,0.00182995,-0.00059389,-0.00015462,-0.00
 026514,-0.00034582,-0.00130918,-0.06306040,0.06821861,-0.05539136,-0.0
 0002566,0.00101435,0.00121396,-0.00066198,0.00080281,0.00016995,-0.001
 03629,0.00109039,0.00060311,-0.00026252,-0.00066293,-0.00054709,-0.000
 77290,-0.00057759,-0.00046806,0.00009179,-0.00052407,-0.00048494,-0.00
 007247,0.00047045,0.00040685\\\@


 ... A MOLECULAR SYSTEM ... (PASSES) ... FROM ONE STATE OF EQUILIBRIUM 
 TO ANOTHER ... BY MEANS OF ALL POSSIBLE INTERMEDIATE PATHS, 
 BUT THE PATH MOST ECONOMICAL OF ENERGY WILL BE THE MORE OFTEN TRAVELED.

                      -- HENRY EYRING, 1945
 Job cpu time:       1 days 14 hours  0 minutes 46.5 seconds.
 Elapsed time:       0 days  9 hours 42 minutes  2.6 seconds.
 File lengths (MBytes):  RWF= 116404 Int=      0 D2E=      0 Chk=    268 Scr=      8
 Normal termination of Gaussian 16 at Sat Nov 13 02:58:20 2021.
