 Entering Gaussian System, Link 0=g16
 Initial command:
 /gpfs/loomis/apps/avx/software/Gaussian/16-C.01_AVX/g16/l1.exe "/home/jl3566/scratch60/g16/Gau-30250.inp" -scrdir="/home/jl3566/scratch60/g16/"
 Entering Link 1 = /gpfs/loomis/apps/avx/software/Gaussian/16-C.01_AVX/g16/l1.exe PID=     30252.
  
 Copyright (c) 1988-2019, Gaussian, Inc.  All Rights Reserved.
  
 This is part of the Gaussian(R) 16 program.  It is based on
 the Gaussian(R) 09 system (copyright 2009, Gaussian, Inc.),
 the Gaussian(R) 03 system (copyright 2003, Gaussian, Inc.),
 the Gaussian(R) 98 system (copyright 1998, Gaussian, Inc.),
 the Gaussian(R) 94 system (copyright 1995, Gaussian, Inc.),
 the Gaussian 92(TM) system (copyright 1992, Gaussian, Inc.),
 the Gaussian 90(TM) system (copyright 1990, Gaussian, Inc.),
 the Gaussian 88(TM) system (copyright 1988, Gaussian, Inc.),
 the Gaussian 86(TM) system (copyright 1986, Carnegie Mellon
 University), and the Gaussian 82(TM) system (copyright 1983,
 Carnegie Mellon University). Gaussian is a federally registered
 trademark of Gaussian, Inc.
  
 This software contains proprietary and confidential information,
 including trade secrets, belonging to Gaussian, Inc.
  
 This software is provided under written license and may be
 used, copied, transmitted, or stored only in accord with that
 written license.
  
 The following legend is applicable only to US Government
 contracts under FAR:
  
                    RESTRICTED RIGHTS LEGEND
  
 Use, reproduction and disclosure by the US Government is
 subject to restrictions as set forth in subparagraphs (a)
 and (c) of the Commercial Computer Software - Restricted
 Rights clause in FAR 52.227-19.
  
 Gaussian, Inc.
 340 Quinnipiac St., Bldg. 40, Wallingford CT 06492
  
  
 ---------------------------------------------------------------
 Warning -- This program may not be used in any manner that
 competes with the business of Gaussian, Inc. or will provide
 assistance to any competitor of Gaussian, Inc.  The licensee
 of this program is prohibited from giving any competitor of
 Gaussian, Inc. access to this program.  By using this program,
 the user acknowledges that Gaussian, Inc. is engaged in the
 business of creating and licensing software in the field of
 computational chemistry and represents and warrants to the
 licensee that it is not a competitor of Gaussian, Inc. and that
 it will not use this program in any manner prohibited above.
 ---------------------------------------------------------------
  

 Cite this work as:
 Gaussian 16, Revision C.01,
 M. J. Frisch, G. W. Trucks, H. B. Schlegel, G. E. Scuseria, 
 M. A. Robb, J. R. Cheeseman, G. Scalmani, V. Barone, 
 G. A. Petersson, H. Nakatsuji, X. Li, M. Caricato, A. V. Marenich, 
 J. Bloino, B. G. Janesko, R. Gomperts, B. Mennucci, H. P. Hratchian, 
 J. V. Ortiz, A. F. Izmaylov, J. L. Sonnenberg, D. Williams-Young, 
 F. Ding, F. Lipparini, F. Egidi, J. Goings, B. Peng, A. Petrone, 
 T. Henderson, D. Ranasinghe, V. G. Zakrzewski, J. Gao, N. Rega, 
 G. Zheng, W. Liang, M. Hada, M. Ehara, K. Toyota, R. Fukuda, 
 J. Hasegawa, M. Ishida, T. Nakajima, Y. Honda, O. Kitao, H. Nakai, 
 T. Vreven, K. Throssell, J. A. Montgomery, Jr., J. E. Peralta, 
 F. Ogliaro, M. J. Bearpark, J. J. Heyd, E. N. Brothers, K. N. Kudin, 
 V. N. Staroverov, T. A. Keith, R. Kobayashi, J. Normand, 
 K. Raghavachari, A. P. Rendell, J. C. Burant, S. S. Iyengar, 
 J. Tomasi, M. Cossi, J. M. Millam, M. Klene, C. Adamo, R. Cammi, 
 J. W. Ochterski, R. L. Martin, K. Morokuma, O. Farkas, 
 J. B. Foresman, and D. J. Fox, Gaussian, Inc., Wallingford CT, 2019.
 
 ******************************************
 Gaussian 16:  ES64L-G16RevC.01  3-Jul-2019
                26-Oct-2021 
 ******************************************
 %chk=Q1H-ACC-O3.chk
 %nproc=4
 Will use up to    4 processors via shared memory.
 %mem=4GB
 --------------------------------------------------------------
 # HF/6-31G* Opt=(Z-matrix,MaxCycles=100) Geom=PrintInputOrient
 --------------------------------------------------------------
 1/6=100,10=7,18=40,38=1/1,3;
 2/9=2000,12=2,17=6,18=5,29=3,40=1/2;
 3/5=1,6=6,7=1,11=9,25=1,30=1,71=1/1,2,3;
 4//1;
 5/5=2,38=5/2;
 6/7=2,8=2,9=2,10=2,28=1/1;
 7/29=1/1,2,3,16;
 1/6=100,10=7,18=40/3(2);
 2/9=2000,29=3/2;
 99//99;
 2/9=2000,29=3/2;
 3/5=1,6=6,7=1,11=9,25=1,30=1,71=1/1,2,3;
 4/5=5,16=3,69=1/1;
 5/5=2,38=5/2;
 7//1,2,3,16;
 1/6=100,18=40/3(-5);
 2/9=2000,29=3/2;
 6/7=2,8=2,9=2,10=2,19=2,28=1/1;
 99/9=1/99;
 -------------------------------------------------------------
 <qmtool> simtype="Geometry optimization" </qmtool> Q1H-ACC-O3
 -------------------------------------------------------------
 Symbolic Z-matrix:
 Charge = -1 Multiplicity = 2
 C1                   -0.227    -1.531    -0.656 
 C2                    0.284    -2.912    -0.982 
 C3                   -1.61     -1.462    -0.185 
 O4                   -2.335    -2.483    -0.066 
 C5                   -2.118    -0.13      0.128 
 O6                   -3.442     0.024     0.509 
 C7                   -1.328     0.988     0.009 
 O8                   -1.831     2.22      0.388 
 C9                    0.031     0.935    -0.497 
 O10                   0.722     2.005    -0.669 
 C11                   0.539    -0.394    -0.793 
 C12                   1.972    -0.43     -1.254 
 H13                   1.026    -3.261    -0.254 
 H14                  -0.563    -3.601    -0.959 
 H15                   0.755    -2.948    -1.97 
 C16                  -3.751    -0.635     1.741 
 H17                  -3.538    -1.702     1.67 
 H18                  -3.183    -0.184     2.566 
 H19                  -4.818    -0.468     1.909 
 C20                  -2.133     3.024    -0.75 
 H21                  -2.906     2.546    -1.365 
 H22                  -2.515     3.972    -0.361 
 H23                  -1.23      3.2      -1.34 
 H24                   2.102    -1.175    -2.053 
 H25                   2.212     0.55     -1.672 
 C26                   2.889    -0.783    -0.115 
 H27                   2.88     -1.834     0.179 
 C28                   3.763     1.535     0.327 
 C29                   3.671     0.053     0.582 
 H30                   4.676     1.784    -0.233 
 H31                   2.885     1.904    -0.207 
 C32                   4.543    -0.461     1.698 
 H33                   4.45     -1.546     1.814 
 H34                   5.599    -0.224     1.512 
 H35                   4.277     0.011     2.653 
 H36                   3.821     2.071     1.282 
 H1w                  O6   rAH      C5    123.47   C16   180.     0
 x                    H1w   1.       O6    90.      C5    0.       0
 Ow                   H1w   0.9572   x     90.      O6    180.     0
 H2w                  Ow    0.9572   H1w   104.52   x    dih      0
       Variables:
  rAH                   2.                       
  dih                   0.                       
 

 GradGradGradGradGradGradGradGradGradGradGradGradGradGradGradGradGradGrad
 Berny optimization.
 Initialization pass.
                       ----------------------------
                       !    Initial Parameters    !
                       ! (Angstroms and Degrees)  !
 ----------------------                            ----------------------
 !      Name          Value   Derivative information (Atomic Units)     !
 ------------------------------------------------------------------------
 !       rAH         2.0      estimate D2E/DX2                          !
 !       dih         0.0      estimate D2E/DX2                          !
 ------------------------------------------------------------------------
 Trust Radius=3.00D-01 FncErr=1.00D-07 GrdErr=1.00D-07 EigMax=2.50D+02 EigMin=1.00D-04
 Number of steps in this run=    100 maximum allowed number of steps=    100.
 GradGradGradGradGradGradGradGradGradGradGradGradGradGradGradGradGradGrad

 ---------------------------------------------------------------------------------------------------
                            Z-MATRIX (ANGSTROMS AND DEGREES)
   CD    Cent   Atom    N1       Length/X        N2       Alpha/Y        N3        Beta/Z          J
 ---------------------------------------------------------------------------------------------------
      1      1  C        0  -0.227000         -1.531000         -0.656000
      2      2  C        0   0.284000         -2.912000         -0.982000
      3      3  C        0  -1.610000         -1.462000         -0.185000
      4      4  O        0  -2.335000         -2.483000         -0.066000
      5      5  C        0  -2.118000         -0.130000          0.128000
      6      6  O        0  -3.442000          0.024000          0.509000
      7      7  C        0  -1.328000          0.988000          0.009000
      8      8  O        0  -1.831000          2.220000          0.388000
      9      9  C        0   0.031000          0.935000         -0.497000
     10     10  O        0   0.722000          2.005000         -0.669000
     11     11  C        0   0.539000         -0.394000         -0.793000
     12     12  C        0   1.972000         -0.430000         -1.254000
     13     13  H        0   1.026000         -3.261000         -0.254000
     14     14  H        0  -0.563000         -3.601000         -0.959000
     15     15  H        0   0.755000         -2.948000         -1.970000
     16     16  C        0  -3.751000         -0.635000          1.741000
     17     17  H        0  -3.538000         -1.702000          1.670000
     18     18  H        0  -3.183000         -0.184000          2.566000
     19     19  H        0  -4.818000         -0.468000          1.909000
     20     20  C        0  -2.133000          3.024000         -0.750000
     21     21  H        0  -2.906000          2.546000         -1.365000
     22     22  H        0  -2.515000          3.972000         -0.361000
     23     23  H        0  -1.230000          3.200000         -1.340000
     24     24  H        0   2.102000         -1.175000         -2.053000
     25     25  H        0   2.212000          0.550000         -1.672000
     26     26  C        0   2.889000         -0.783000         -0.115000
     27     27  H        0   2.880000         -1.834000          0.179000
     28     28  C        0   3.763000          1.535000          0.327000
     29     29  C        0   3.671000          0.053000          0.582000
     30     30  H        0   4.676000          1.784000         -0.233000
     31     31  H        0   2.885000          1.904000         -0.207000
     32     32  C        0   4.543000         -0.461000          1.698000
     33     33  H        0   4.450000         -1.546000          1.814000
     34     34  H        0   5.599000         -0.224000          1.512000
     35     35  H        0   4.277000          0.011000          2.653000
     36     36  H        0   3.821000          2.071000          1.282000
     37     37  H        6   2.000000(    36)      5  123.470(    74)     16  180.000(   111)      0
     38         X       37   1.000000(    37)      6   90.000(    75)      5    0.000(   112)      0
     39     38  O       37   0.957200(    38)     38   90.000(    76)      6  180.000(   113)      0
     40     39  H       39   0.957200(    39)     37  104.520(    77)     38    0.000(   114)      0
 ---------------------------------------------------------------------------------------------------
                         Z-Matrix orientation:                         
 ---------------------------------------------------------------------
 Center     Atomic      Atomic             Coordinates (Angstroms)
 Number     Number       Type             X           Y           Z
 ---------------------------------------------------------------------
      1          6           0       -0.227000   -1.531000   -0.656000
      2          6           0        0.284000   -2.912000   -0.982000
      3          6           0       -1.610000   -1.462000   -0.185000
      4          8           0       -2.335000   -2.483000   -0.066000
      5          6           0       -2.118000   -0.130000    0.128000
      6          8           0       -3.442000    0.024000    0.509000
      7          6           0       -1.328000    0.988000    0.009000
      8          8           0       -1.831000    2.220000    0.388000
      9          6           0        0.031000    0.935000   -0.497000
     10          8           0        0.722000    2.005000   -0.669000
     11          6           0        0.539000   -0.394000   -0.793000
     12          6           0        1.972000   -0.430000   -1.254000
     13          1           0        1.026000   -3.261000   -0.254000
     14          1           0       -0.563000   -3.601000   -0.959000
     15          1           0        0.755000   -2.948000   -1.970000
     16          6           0       -3.751000   -0.635000    1.741000
     17          1           0       -3.538000   -1.702000    1.670000
     18          1           0       -3.183000   -0.184000    2.566000
     19          1           0       -4.818000   -0.468000    1.909000
     20          6           0       -2.133000    3.024000   -0.750000
     21          1           0       -2.906000    2.546000   -1.365000
     22          1           0       -2.515000    3.972000   -0.361000
     23          1           0       -1.230000    3.200000   -1.340000
     24          1           0        2.102000   -1.175000   -2.053000
     25          1           0        2.212000    0.550000   -1.672000
     26          6           0        2.889000   -0.783000   -0.115000
     27          1           0        2.880000   -1.834000    0.179000
     28          6           0        3.763000    1.535000    0.327000
     29          6           0        3.671000    0.053000    0.582000
     30          1           0        4.676000    1.784000   -0.233000
     31          1           0        2.885000    1.904000   -0.207000
     32          6           0        4.543000   -0.461000    1.698000
     33          1           0        4.450000   -1.546000    1.814000
     34          1           0        5.599000   -0.224000    1.512000
     35          1           0        4.277000    0.011000    2.653000
     36          1           0        3.821000    2.071000    1.282000
     37          1           0       -4.782191    1.060490   -0.553815
     38         -1           0       -4.080304    1.269949   -1.234610
     39          8           0       -5.423606    1.556554   -1.062479
     40          1           0       -4.934034    1.875017   -1.820853
 ---------------------------------------------------------------------
                    Distance matrix (angstroms):
                    1          2          3          4          5
     1  C    0.000000
     2  C    1.508164   0.000000
     3  C    1.462632   2.514944   0.000000
     4  O    2.387063   2.807536   1.257866   0.000000
     5  C    2.480592   3.839431   1.459540   2.370935   0.000000
     6  O    3.756524   4.972550   2.458873   2.800201   1.386309
     7  C    2.828389   4.334815   2.473795   3.614902   1.374112
     8  O    4.211028   5.717303   3.732867   4.751667   2.381695
     9  C    2.484552   3.885697   2.921615   4.179287   2.478518
    10  O    3.661157   4.946383   4.206254   5.463607   3.641296
    11  C    1.377786   2.537926   2.475579   3.626614   2.824462
    12  C    2.530890   3.013910   3.877952   4.916951   4.327589
    13  H    2.173594   1.096517   3.192124   3.454989   4.453518
    14  H    2.118869   1.092089   2.504118   2.277577   3.955684
    15  H    2.167674   1.095117   3.314762   3.659172   4.538376
    16  C    4.355112   5.374075   2.996212   2.947102   2.350209
    17  H    4.049968   4.806754   2.686226   2.251858   2.620181
    18  H    4.575328   5.661305   3.416960   3.596099   2.661012
    19  H    5.365303   6.353064   3.957794   3.758476   3.252108
    20  C    4.938593   6.413408   4.551588   5.552991   3.273962
    21  H    4.929670   6.333447   4.374481   5.225350   3.164012
    22  H    5.966991   7.457177   5.511656   6.464244   4.150076
    23  H    4.884284   6.306893   4.817953   5.927950   3.745994
    24  H    2.739085   2.733008   4.165422   5.034481   4.863865
    25  H    3.363263   4.022279   4.568041   5.696800   4.738280
    26  C    3.249868   3.474242   4.550488   5.493867   5.055245
    27  H    3.231483   3.041253   4.520064   5.260936   5.280741
    28  C    5.127060   5.795924   6.173596   7.313301   6.115389
    29  C    4.385898   4.765406   5.547294   6.551583   5.809658
    30  H    5.933596   6.473259   7.074787   8.209099   7.067684
    31  H    4.656755   5.528081   5.615645   6.820121   5.411043
    32  C    5.425783   5.597221   6.512074   7.382890   6.851524
    33  H    5.289183   5.199916   6.381744   7.102717   6.927213
    34  H    6.352224   6.457136   7.508804   8.398900   7.840688
    35  H    5.797694   6.140131   6.699309   7.571759   6.876884
    36  H    5.754698   6.516621   6.643037   7.775111   6.438000
    37  H    5.241758   6.452155   4.069616   4.333939   2.996673
    38  X    4.798756   6.049766   3.829835   4.300740   2.768972
    39  O    6.058295   7.249222   4.942189   5.181743   3.897273
    40  H    5.925707   7.130714   4.986070   5.369059   3.968396
                    6          7          8          9         10
     6  O    0.000000
     7  C    2.376614   0.000000
     8  O    2.726239   1.383645   0.000000
     9  C    3.728765   1.451112   2.429299   0.000000
    10  O    4.759300   2.386729   2.771513   1.285288   0.000000
    11  C    4.209310   2.457400   3.720841   1.453245   2.409163
    12  C    5.711889   3.807347   4.917466   2.490734   2.798920
    13  H    5.597894   4.864616   6.214175   4.319200   5.291068
    14  H    4.856366   4.751965   6.107886   4.597997   5.758695
    15  H    5.709031   4.873133   6.241457   4.215637   5.121123
    16  C    1.430939   3.391885   3.697030   4.666591   5.725856
    17  H    2.082358   3.857346   4.465362   4.938362   6.112313
    18  H    2.083649   3.369400   3.514371   4.578638   5.523221
    19  H    2.023719   4.232025   4.296621   5.591963   6.591920
    20  C    3.506931   2.317197   1.425715   3.018414   3.032482
    21  H    3.187422   2.608702   2.082045   3.460450   3.733561
    22  H    4.147642   3.232665   2.024441   3.965348   3.800279
    23  H    4.289373   2.592749   2.075472   2.725985   2.385072
    24  H    6.223936   4.549210   5.740470   3.340999   3.732594
    25  H    6.082857   3.943248   4.835116   2.507112   2.311522
    26  C    6.412658   4.575468   5.616887   3.356428   3.574318
    27  H    6.597632   5.069502   6.218691   4.030030   4.484862
    28  C    7.363985   5.130167   5.636114   3.868695   3.234285
    29  C    7.113434   5.117866   5.916547   3.897661   3.751254
    30  H    8.339670   6.061369   6.551091   4.729326   3.984100
    31  H    6.639125   4.316837   4.763878   3.027933   2.214094
    32  C    8.087594   6.278612   7.037879   5.208165   5.126781
    33  H    8.151784   6.562352   7.461045   5.569887   5.716019
    34  H    9.099846   7.191056   7.901988   6.031748   5.788811
    35  H    8.011234   6.273858   6.878777   5.367010   5.258303
    36  H    7.585440   5.413467   5.724207   4.338138   3.662589
    37  H    2.000000   3.500493   3.307720   4.815162   5.585829
    38  X    2.236068   3.033355   2.931694   4.190356   4.891047
    39  O    2.957200   4.271453   3.930760   5.518952   6.174497
    40  H    3.328760   4.139884   3.824508   5.223770   5.773593
                   11         12         13         14         15
    11  C    0.000000
    12  C    1.505758   0.000000
    13  H    2.957597   3.147932   0.000000
    14  H    3.395116   4.070441   1.771312   0.000000
    15  H    2.820443   2.886879   1.765238   1.784840   0.000000
    16  C    4.988320   6.462567   5.804794   5.123524   6.278975
    17  H    4.939551   6.366150   5.192529   4.400962   5.764717
    18  H    5.017994   6.420821   5.927564   5.564703   6.612325
    19  H    6.000311   7.490668   6.828745   6.012166   7.228787
    20  C    4.338681   5.388428   7.051703   6.811696   6.744904
    21  H    4.564954   5.715224   7.100436   6.590910   6.629704
    22  H    5.345605   6.348876   8.053969   7.843356   7.821009
    23  H    4.042945   4.841188   6.929174   6.844242   6.491150
    24  H    2.154189   1.100148   2.957291   3.766237   2.228189
    25  H    2.112512   1.092119   4.235687   5.043788   3.801007
    26  C    2.476591   1.504267   3.103317   4.535390   3.561208
    27  H    2.915247   2.202083   2.379314   4.033805   3.220997
    28  C    3.920410   3.093294   5.552508   6.837146   5.866989
    29  C    3.449617   2.547702   4.321749   5.801134   4.901200
    30  H    4.708721   3.640859   6.226955   7.548008   6.386175
    31  H    3.335853   2.716125   5.489564   6.539055   5.584530
    32  C    4.716099   3.914755   4.900979   6.556713   5.829952
    33  H    4.839367   4.098605   4.352198   6.086273   5.471497
    34  H    5.562870   4.565996   5.766667   7.448504   6.558112
    35  H    5.100155   4.557648   5.452122   7.036952   6.521679
    36  H    4.599280   4.013116   6.213014   7.510867   6.720582
    37  H    5.521578   6.952044   7.245705   6.300416   6.980978
    38  X    4.929678   6.286541   6.896771   6.014444   6.458488
    39  O    6.279328   7.660161   8.090728   7.087776   7.699986
    40  H    6.013237   7.302584   8.022200   7.059426   7.459815
                   16         17         18         19         20
    16  C    0.000000
    17  H    1.090366   0.000000
    18  H    1.098476   1.798100   0.000000
    19  H    1.092978   1.793956   1.784805   0.000000
    20  C    4.712885   5.492313   4.731767   5.145247   0.000000
    21  H    4.525486   5.258912   4.793995   4.843451   1.097378
    22  H    5.212538   6.112754   5.126976   5.492750   1.093595
    23  H    5.527678   6.198110   5.524717   6.073217   1.092925
    24  H    6.995973   6.778500   7.088615   8.005229   6.104476
    25  H    6.972099   7.021607   6.899668   7.954922   5.084268
    26  C    6.896103   6.733284   6.664514   7.974562   6.333795
    27  H    6.917196   6.590238   6.721625   8.007375   7.042256
    28  C    7.947861   8.098544   7.497666   8.952558   6.175748
    29  C    7.543388   7.498897   7.139310   8.607874   6.654884
    30  H    8.986800   9.123782   8.571541   9.989780   6.940272
    31  H    7.367341   7.601401   6.990701   8.333069   5.170065
    32  C    8.295937   8.175783   7.779539   9.363380   7.918769
    33  H    8.251766   7.990821   7.789945   9.330966   8.413969
    34  H    9.361830   9.257117   8.845114  10.427417   8.686194
    35  H    8.105421   8.060700   7.463055   9.137943   7.857905
    36  H    8.054086   8.278947   7.469250   9.026183   6.362967
    37  H    3.033846   3.758286   3.720136   2.898797   3.303343
    38  X    3.548455   4.190864   4.166985   3.667008   2.665246
    39  O    3.931923   4.651895   4.606051   3.646267   3.616508
    40  H    4.515147   5.189414   5.152684   4.406245   3.211336
                   21         22         23         24         25
    21  H    0.000000
    22  H    1.787281   0.000000
    23  H    1.799254   1.790433   0.000000
    24  H    6.276882   7.118368   5.545378   0.000000
    25  H    5.502017   5.981081   4.356614   1.769996   0.000000
    26  C    6.799027   7.202344   5.859273   2.128116   2.158580
    27  H    7.419308   7.944008   6.673876   2.453852   3.091259
    28  C    6.954175   6.769461   5.520975   3.970821   2.715111
    29  C    7.298136   7.383387   6.133310   3.303478   2.730606
    30  H    7.703817   7.517593   6.173438   4.323605   3.108822
    31  H    5.940438   5.784491   4.460553   3.674377   2.105343
    32  C    8.597187   8.585240   7.480635   4.531918   4.220496
    33  H    8.997846   9.148233   8.045783   4.539211   4.642635
    34  H    9.396013   9.324781   8.154319   5.083565   4.712611
    35  H    8.611971   8.420510   7.512711   5.318238   4.822901
    36  H    7.244637   6.816021   5.801907   4.961220   3.691672
    37  H    2.526827   3.695162   4.220622   7.391688   7.101383
    38  X    1.739051   3.242599   3.443899   6.698390   6.348443
    39  O    2.721923   3.845314   4.512679   8.067049   7.725746
    40  H    2.184248   3.518555   3.963163   7.672175   7.269362
                   26         27         28         29         30
    26  C    0.000000
    27  H    1.091384   0.000000
    28  C    2.516419   3.485937   0.000000
    29  C    1.340235   2.085392   1.506590   0.000000
    30  H    3.129981   4.060207   1.099623   2.161160   0.000000
    31  H    2.688578   3.757880   1.091880   2.160213   1.795204
    32  C    2.475150   2.637813   2.544024   1.506664   2.964199
    33  H    2.596138   2.284966   3.489369   2.163669   3.915378
    34  H    3.209939   3.429570   2.805210   2.158428   2.815851
    35  H    3.196687   3.387670   2.827905   2.158250   3.410532
    36  H    3.311427   4.165467   1.096670   2.141220   1.763128
    37  H    7.901784   8.223397   8.603562   8.588455   9.491247
    38  X    7.351145   7.751041   8.001644   8.053804   8.828383
    39  O    8.687385   9.054668   9.291117   9.363592  10.136164
    40  H    8.436518   8.877801   8.964780   9.118117   9.740755
                   31         32         33         34         35
    31  H    0.000000
    32  C    3.459944   0.000000
    33  H    4.293736   1.095139   0.000000
    34  H    3.853458   1.098135   1.777383   0.000000
    35  H    3.701448   1.097982   1.777104   1.762042   0.000000
    36  H    1.766665   2.665589   3.709630   2.912252   2.516183
    37  H    7.721244   9.713125   9.880976  10.662393   9.667163
    38  X    7.069192   9.271341   9.486289  10.171759   9.302849
    39  O    8.359755  10.536793  10.741884  11.458454  10.502156
    40  H    7.983899  10.375619  10.628998  11.245380  10.408317
                   36         37         38         39         40
    36  H    0.000000
    37  H    8.854730   0.000000
    38  X    8.331004   1.000000   0.000000
    39  O    9.551125   0.957200   1.384280   0.000000
    40  H    9.290679   1.513901   1.199434   0.957200   0.000000
 Stoichiometry    C14H20O5(1-,2)
 Framework group  C1[X(C14H20O5)]
 Deg. of freedom   111
 Full point group                 C1      NOp   1
 Largest Abelian subgroup         C1      NOp   1
 Largest concise Abelian subgroup C1      NOp   1
                         Standard orientation:                         
 ---------------------------------------------------------------------
 Center     Atomic      Atomic             Coordinates (Angstroms)
 Number     Number       Type             X           Y           Z
 ---------------------------------------------------------------------
      1          6           0       -0.272714    1.590654   -0.659626
      2          6           0       -0.900204    2.898683   -1.071784
      3          6           0        1.083524    1.680944   -0.119481
      4          8           0        1.696427    2.774065   -0.011483
      5          6           0        1.703860    0.420801    0.277357
      6          8           0        3.014648    0.417032    0.728659
      7          6           0        1.035985   -0.775328    0.170568
      8          8           0        1.637956   -1.933940    0.628523
      9          6           0       -0.292972   -0.880487   -0.402617
     10          8           0       -0.864435   -2.020985   -0.559646
     11          6           0       -0.913907    0.377352   -0.782357
     12          6           0       -2.317085    0.249591   -1.313465
     13          1           0       -1.710524    3.199464   -0.397055
     14          1           0       -0.128090    3.670309   -1.038733
     15          1           0       -1.319661    2.847367   -2.082083
     16          6           0        3.191347    1.152533    1.943320
     17          1           0        2.877650    2.188783    1.814174
     18          1           0        2.628126    0.679563    2.759244
     19          1           0        4.259289    1.101314    2.170209
     20          6           0        2.077807   -2.747936   -0.456191
     21          1           0        2.830973   -2.218987   -1.053846
     22          1           0        2.530857   -3.636095   -0.006895
     23          1           0        1.229102   -3.037888   -1.080781
     24          1           0       -2.477968    0.945140   -2.150516
     25          1           0       -2.436345   -0.765561   -1.698130
     26          6           0       -3.323381    0.553005   -0.237303
     27          1           0       -3.434156    1.610391    0.009238
     28          6           0       -3.985348   -1.822136    0.265557
     29          6           0       -4.054323   -0.329459    0.457831
     30          1           0       -4.838334   -2.184471   -0.326301
     31          1           0       -3.048141   -2.121287   -0.208102
     32          6           0       -5.030654    0.137641    1.505988
     33          1           0       -5.051938    1.230238    1.577464
     34          1           0       -6.046659   -0.212343    1.279836
     35          1           0       -4.769929   -0.266535    2.493019
     36          1           0       -4.040228   -2.322754    1.239752
     37          1           0        4.505205   -0.519902   -0.220232
     38          8           0        5.218586   -0.968319   -0.674371
     39          1           0        4.803701   -1.364718   -1.440511
 ---------------------------------------------------------------------
 Rotational constants (GHZ):           0.5648926           0.2210446           0.1819918
 Standard basis: 6-31G(d) (6D, 7F)
 There are   325 symmetry adapted cartesian basis functions of A   symmetry.
 There are   325 symmetry adapted basis functions of A   symmetry.
   325 basis functions,   612 primitive gaussians,   325 cartesian basis functions
    73 alpha electrons       72 beta electrons
       nuclear repulsion energy      1500.6811005310 Hartrees.
 NAtoms=   39 NActive=   39 NUniq=   39 SFac= 1.00D+00 NAtFMM=   60 NAOKFM=F Big=F
 Integral buffers will be    131072 words long.
 Raffenetti 2 integral format.
 Two-electron integral symmetry is turned on.
 One-electron integrals computed using PRISM.
 NBasis=   325 RedAO= T EigKep=  3.03D-04  NBF=   325
 NBsUse=   325 1.00D-06 EigRej= -1.00D+00 NBFU=   325
 ExpMin= 1.61D-01 ExpMax= 5.48D+03 ExpMxC= 8.25D+02 IAcc=3 IRadAn=         5 AccDes= 0.00D+00
 Harris functional with IExCor=  205 and IRadAn=       5 diagonalized for initial guess.
 HarFok:  IExCor=  205 AccDes= 0.00D+00 IRadAn=         5 IDoV= 1 UseB2=F ITyADJ=14
 ICtDFT=  3500011 ScaDFX=  1.000000  1.000000  1.000000  1.000000
 FoFCou: FMM=F IPFlag=           0 FMFlag=      100000 FMFlg1=           0
         NFxFlg=           0 DoJE=T BraDBF=F KetDBF=T FulRan=T
         wScrn=  0.000000 ICntrl=       500 IOpCl=  0 I1Cent=   200000004 NGrid=           0
         NMat0=    1 NMatS0=      1 NMatT0=    0 NMatD0=    1 NMtDS0=    0 NMtDT0=    0
 Petite list used in FoFCou.
 Initial guess <Sx>= 0.0000 <Sy>= 0.0000 <Sz>= 0.5000 <S**2>= 0.7500 S= 0.5000
 Requested convergence on RMS density matrix=1.00D-08 within 128 cycles.
 Requested convergence on MAX density matrix=1.00D-06.
 Requested convergence on             energy=1.00D-06.
 No special actions if energy rises.
 Integral accuracy reduced to 1.0D-05 until final iterations.
 Initial convergence to 1.0D-05 achieved.  Increase integral accuracy.
 Restarting incremental Fock formation.
 SCF Done:  E(UHF) =  -916.055942618     A.U. after   46 cycles
            NFock= 46  Conv=0.63D-08     -V/T= 2.0020
 <Sx>= 0.0000 <Sy>= 0.0000 <Sz>= 0.5000 <S**2>= 0.8851 S= 0.5654
 <L.S>=  0.00000000000    
 Annihilation of the first spin contaminant:
 S**2 before annihilation     0.8851,   after     0.7616

 **********************************************************************

            Population analysis using the SCF Density.

 **********************************************************************

 Orbital symmetries:
 Alpha Orbitals:
       Occupied  (A) (A) (A) (A) (A) (A) (A) (A) (A) (A) (A) (A)
                 (A) (A) (A) (A) (A) (A) (A) (A) (A) (A) (A) (A)
                 (A) (A) (A) (A) (A) (A) (A) (A) (A) (A) (A) (A)
                 (A) (A) (A) (A) (A) (A) (A) (A) (A) (A) (A) (A)
                 (A) (A) (A) (A) (A) (A) (A) (A) (A) (A) (A) (A)
                 (A) (A) (A) (A) (A) (A) (A) (A) (A) (A) (A) (A)
                 (A)
       Virtual   (A) (A) (A) (A) (A) (A) (A) (A) (A) (A) (A) (A)
                 (A) (A) (A) (A) (A) (A) (A) (A) (A) (A) (A) (A)
                 (A) (A) (A) (A) (A) (A) (A) (A) (A) (A) (A) (A)
                 (A) (A) (A) (A) (A) (A) (A) (A) (A) (A) (A) (A)
                 (A) (A) (A) (A) (A) (A) (A) (A) (A) (A) (A) (A)
                 (A) (A) (A) (A) (A) (A) (A) (A) (A) (A) (A) (A)
                 (A) (A) (A) (A) (A) (A) (A) (A) (A) (A) (A) (A)
                 (A) (A) (A) (A) (A) (A) (A) (A) (A) (A) (A) (A)
                 (A) (A) (A) (A) (A) (A) (A) (A) (A) (A) (A) (A)
                 (A) (A) (A) (A) (A) (A) (A) (A) (A) (A) (A) (A)
                 (A) (A) (A) (A) (A) (A) (A) (A) (A) (A) (A) (A)
                 (A) (A) (A) (A) (A) (A) (A) (A) (A) (A) (A) (A)
                 (A) (A) (A) (A) (A) (A) (A) (A) (A) (A) (A) (A)
                 (A) (A) (A) (A) (A) (A) (A) (A) (A) (A) (A) (A)
                 (A) (A) (A) (A) (A) (A) (A) (A) (A) (A) (A) (A)
                 (A) (A) (A) (A) (A) (A) (A) (A) (A) (A) (A) (A)
                 (A) (A) (A) (A) (A) (A) (A) (A) (A) (A) (A) (A)
                 (A) (A) (A) (A) (A) (A) (A) (A) (A) (A) (A) (A)
                 (A) (A) (A) (A) (A) (A) (A) (A) (A) (A) (A) (A)
                 (A) (A) (A) (A) (A) (A) (A) (A) (A) (A) (A) (A)
                 (A) (A) (A) (A) (A) (A) (A) (A) (A) (A) (A) (A)
 Beta  Orbitals:
       Occupied  (A) (A) (A) (A) (A) (A) (A) (A) (A) (A) (A) (A)
                 (A) (A) (A) (A) (A) (A) (A) (A) (A) (A) (A) (A)
                 (A) (A) (A) (A) (A) (A) (A) (A) (A) (A) (A) (A)
                 (A) (A) (A) (A) (A) (A) (A) (A) (A) (A) (A) (A)
                 (A) (A) (A) (A) (A) (A) (A) (A) (A) (A) (A) (A)
                 (A) (A) (A) (A) (A) (A) (A) (A) (A) (A) (A) (A)
       Virtual   (A) (A) (A) (A) (A) (A) (A) (A) (A) (A) (A) (A)
                 (A) (A) (A) (A) (A) (A) (A) (A) (A) (A) (A) (A)
                 (A) (A) (A) (A) (A) (A) (A) (A) (A) (A) (A) (A)
                 (A) (A) (A) (A) (A) (A) (A) (A) (A) (A) (A) (A)
                 (A) (A) (A) (A) (A) (A) (A) (A) (A) (A) (A) (A)
                 (A) (A) (A) (A) (A) (A) (A) (A) (A) (A) (A) (A)
                 (A) (A) (A) (A) (A) (A) (A) (A) (A) (A) (A) (A)
                 (A) (A) (A) (A) (A) (A) (A) (A) (A) (A) (A) (A)
                 (A) (A) (A) (A) (A) (A) (A) (A) (A) (A) (A) (A)
                 (A) (A) (A) (A) (A) (A) (A) (A) (A) (A) (A) (A)
                 (A) (A) (A) (A) (A) (A) (A) (A) (A) (A) (A) (A)
                 (A) (A) (A) (A) (A) (A) (A) (A) (A) (A) (A) (A)
                 (A) (A) (A) (A) (A) (A) (A) (A) (A) (A) (A) (A)
                 (A) (A) (A) (A) (A) (A) (A) (A) (A) (A) (A) (A)
                 (A) (A) (A) (A) (A) (A) (A) (A) (A) (A) (A) (A)
                 (A) (A) (A) (A) (A) (A) (A) (A) (A) (A) (A) (A)
                 (A) (A) (A) (A) (A) (A) (A) (A) (A) (A) (A) (A)
                 (A) (A) (A) (A) (A) (A) (A) (A) (A) (A) (A) (A)
                 (A) (A) (A) (A) (A) (A) (A) (A) (A) (A) (A) (A)
                 (A) (A) (A) (A) (A) (A) (A) (A) (A) (A) (A) (A)
                 (A) (A) (A) (A) (A) (A) (A) (A) (A) (A) (A) (A)
                 (A)
 The electronic state is 2-A.
 Alpha  occ. eigenvalues --  -20.46024 -20.44211 -20.43100 -20.40131 -20.36487
 Alpha  occ. eigenvalues --  -11.15885 -11.15799 -11.15169 -11.15136 -11.14309
 Alpha  occ. eigenvalues --  -11.14089 -11.12453 -11.11932 -11.10862 -11.10402
 Alpha  occ. eigenvalues --  -11.10009 -11.09828 -11.09793 -11.09413  -1.27701
 Alpha  occ. eigenvalues --   -1.25032  -1.22179  -1.21511  -1.17662  -0.99888
 Alpha  occ. eigenvalues --   -0.97637  -0.91647  -0.88412  -0.83548  -0.82755
 Alpha  occ. eigenvalues --   -0.81950  -0.79552  -0.76327  -0.74492  -0.65016
 Alpha  occ. eigenvalues --   -0.64397  -0.59581  -0.58675  -0.57682  -0.54670
 Alpha  occ. eigenvalues --   -0.53564  -0.52072  -0.51798  -0.49833  -0.49330
 Alpha  occ. eigenvalues --   -0.49007  -0.48593  -0.48080  -0.46609  -0.46002
 Alpha  occ. eigenvalues --   -0.45264  -0.44564  -0.43441  -0.42876  -0.42537
 Alpha  occ. eigenvalues --   -0.41400  -0.40885  -0.40504  -0.40035  -0.39435
 Alpha  occ. eigenvalues --   -0.38640  -0.37977  -0.37245  -0.36838  -0.35112
 Alpha  occ. eigenvalues --   -0.34301  -0.31847  -0.28037  -0.27506  -0.25523
 Alpha  occ. eigenvalues --   -0.21935  -0.19162  -0.10727
 Alpha virt. eigenvalues --    0.27019   0.30041   0.32026   0.32722   0.33548
 Alpha virt. eigenvalues --    0.35389   0.37674   0.38523   0.39957   0.40266
 Alpha virt. eigenvalues --    0.40674   0.41198   0.42194   0.42438   0.43461
 Alpha virt. eigenvalues --    0.44149   0.45335   0.45680   0.45849   0.46341
 Alpha virt. eigenvalues --    0.47456   0.50014   0.50541   0.50733   0.50934
 Alpha virt. eigenvalues --    0.52796   0.53830   0.54316   0.55814   0.57617
 Alpha virt. eigenvalues --    0.58656   0.62507   0.64100   0.64553   0.67813
 Alpha virt. eigenvalues --    0.69114   0.71869   0.74241   0.74848   0.76291
 Alpha virt. eigenvalues --    0.80047   0.82431   0.83165   0.84428   0.86113
 Alpha virt. eigenvalues --    0.86541   0.87607   0.88209   0.88472   0.89833
 Alpha virt. eigenvalues --    0.90223   0.91105   0.91316   0.92273   0.93956
 Alpha virt. eigenvalues --    0.95511   0.95764   0.97249   0.98279   0.98621
 Alpha virt. eigenvalues --    1.02167   1.02848   1.05237   1.06026   1.06922
 Alpha virt. eigenvalues --    1.07288   1.08185   1.09488   1.10012   1.10875
 Alpha virt. eigenvalues --    1.11774   1.12989   1.14157   1.15236   1.15584
 Alpha virt. eigenvalues --    1.16798   1.18078   1.19215   1.20515   1.22935
 Alpha virt. eigenvalues --    1.23649   1.23902   1.24589   1.24996   1.25238
 Alpha virt. eigenvalues --    1.26008   1.26904   1.27390   1.27832   1.28348
 Alpha virt. eigenvalues --    1.28534   1.29166   1.30720   1.31055   1.31397
 Alpha virt. eigenvalues --    1.32888   1.33293   1.33991   1.34114   1.35711
 Alpha virt. eigenvalues --    1.37192   1.38727   1.38986   1.40752   1.41110
 Alpha virt. eigenvalues --    1.42787   1.44577   1.46021   1.48123   1.48771
 Alpha virt. eigenvalues --    1.50479   1.51452   1.52535   1.53487   1.54542
 Alpha virt. eigenvalues --    1.56542   1.57574   1.58611   1.59735   1.61445
 Alpha virt. eigenvalues --    1.62951   1.64623   1.65380   1.66514   1.70677
 Alpha virt. eigenvalues --    1.72287   1.74151   1.75500   1.78424   1.78893
 Alpha virt. eigenvalues --    1.79567   1.82040   1.83803   1.84259   1.84525
 Alpha virt. eigenvalues --    1.86551   1.87849   1.88334   1.91894   1.92736
 Alpha virt. eigenvalues --    1.97917   2.00624   2.03472   2.04973   2.08040
 Alpha virt. eigenvalues --    2.11805   2.13853   2.14586   2.15065   2.15918
 Alpha virt. eigenvalues --    2.17184   2.17843   2.19666   2.20346   2.21501
 Alpha virt. eigenvalues --    2.22904   2.23721   2.26217   2.26987   2.27942
 Alpha virt. eigenvalues --    2.28093   2.30636   2.31833   2.33016   2.33228
 Alpha virt. eigenvalues --    2.34872   2.36626   2.38550   2.39258   2.41163
 Alpha virt. eigenvalues --    2.41634   2.44607   2.46264   2.47361   2.49834
 Alpha virt. eigenvalues --    2.50410   2.52089   2.53149   2.54578   2.55249
 Alpha virt. eigenvalues --    2.56044   2.58456   2.59893   2.60874   2.62515
 Alpha virt. eigenvalues --    2.65171   2.66560   2.68173   2.68283   2.69821
 Alpha virt. eigenvalues --    2.70793   2.73026   2.73634   2.73749   2.78396
 Alpha virt. eigenvalues --    2.79961   2.82088   2.82380   2.83084   2.84692
 Alpha virt. eigenvalues --    2.85585   2.86859   2.87801   2.90075   2.92829
 Alpha virt. eigenvalues --    2.94171   2.94397   2.97380   3.00144   3.01995
 Alpha virt. eigenvalues --    3.04270   3.07590   3.08872   3.11175   3.12487
 Alpha virt. eigenvalues --    3.12752   3.15949   3.17392   3.23593   3.25923
 Alpha virt. eigenvalues --    3.30281   3.31560   3.37491   3.41384   3.45996
 Alpha virt. eigenvalues --    3.46607   3.51525   3.53641   3.55387   3.57994
 Alpha virt. eigenvalues --    3.61479   3.85992   3.93047   4.25196   4.43512
 Alpha virt. eigenvalues --    4.53846   4.62339   4.67484   4.73591   4.76400
 Alpha virt. eigenvalues --    4.77836   4.81996   4.82886   4.83619   4.90959
 Alpha virt. eigenvalues --    4.92968   5.00017   5.05508   5.12414   5.22433
 Alpha virt. eigenvalues --    5.36262   5.81834
  Beta  occ. eigenvalues --  -20.46016 -20.44208 -20.43099 -20.38294 -20.34949
  Beta  occ. eigenvalues --  -11.16134 -11.15779 -11.15164 -11.14706 -11.14565
  Beta  occ. eigenvalues --  -11.13765 -11.12442 -11.12026 -11.10788 -11.09997
  Beta  occ. eigenvalues --  -11.09932 -11.09863 -11.09782 -11.09691  -1.27465
  Beta  occ. eigenvalues --   -1.24915  -1.21533  -1.18301  -1.14317  -0.99451
  Beta  occ. eigenvalues --   -0.96982  -0.91415  -0.87799  -0.83088  -0.82606
  Beta  occ. eigenvalues --   -0.81931  -0.79120  -0.75101  -0.73906  -0.64518
  Beta  occ. eigenvalues --   -0.63698  -0.59558  -0.58629  -0.57561  -0.54335
  Beta  occ. eigenvalues --   -0.53313  -0.51638  -0.51446  -0.49571  -0.49187
  Beta  occ. eigenvalues --   -0.49061  -0.48394  -0.47956  -0.45967  -0.45001
  Beta  occ. eigenvalues --   -0.44382  -0.44076  -0.43036  -0.42506  -0.41526
  Beta  occ. eigenvalues --   -0.40599  -0.39978  -0.39799  -0.38642  -0.38401
  Beta  occ. eigenvalues --   -0.37214  -0.37049  -0.35861  -0.35227  -0.33294
  Beta  occ. eigenvalues --   -0.31783  -0.29736  -0.25999  -0.24324  -0.21935
  Beta  occ. eigenvalues --   -0.18613  -0.17222
  Beta virt. eigenvalues --    0.20559   0.29269   0.31596   0.32607   0.33741
  Beta virt. eigenvalues --    0.35377   0.37011   0.38588   0.39260   0.40035
  Beta virt. eigenvalues --    0.40533   0.40952   0.41306   0.42331   0.42548
  Beta virt. eigenvalues --    0.43452   0.44186   0.45433   0.45825   0.46047
  Beta virt. eigenvalues --    0.46573   0.47894   0.50298   0.50766   0.50811
  Beta virt. eigenvalues --    0.51436   0.53317   0.54040   0.54449   0.56119
  Beta virt. eigenvalues --    0.58139   0.59102   0.63185   0.64329   0.64929
  Beta virt. eigenvalues --    0.68437   0.69280   0.72001   0.74457   0.75103
  Beta virt. eigenvalues --    0.76817   0.80241   0.82621   0.83373   0.84951
  Beta virt. eigenvalues --    0.86164   0.86653   0.87738   0.88526   0.88839
  Beta virt. eigenvalues --    0.89915   0.90367   0.91309   0.91364   0.92375
  Beta virt. eigenvalues --    0.94289   0.95758   0.95780   0.97394   0.98324
  Beta virt. eigenvalues --    0.98634   1.02572   1.03130   1.05567   1.06165
  Beta virt. eigenvalues --    1.07048   1.07455   1.08454   1.09675   1.10143
  Beta virt. eigenvalues --    1.11604   1.11741   1.13111   1.14553   1.15353
  Beta virt. eigenvalues --    1.15943   1.17254   1.18179   1.19385   1.20889
  Beta virt. eigenvalues --    1.23105   1.23710   1.24012   1.24714   1.25069
  Beta virt. eigenvalues --    1.25445   1.26120   1.27246   1.27505   1.27857
  Beta virt. eigenvalues --    1.28417   1.28655   1.29371   1.30785   1.31084
  Beta virt. eigenvalues --    1.31525   1.33176   1.33497   1.34165   1.34316
  Beta virt. eigenvalues --    1.35830   1.37432   1.38998   1.39359   1.41005
  Beta virt. eigenvalues --    1.41315   1.43088   1.44939   1.46913   1.49296
  Beta virt. eigenvalues --    1.50700   1.51532   1.52604   1.53476   1.54195
  Beta virt. eigenvalues --    1.55202   1.57021   1.58926   1.59035   1.60558
  Beta virt. eigenvalues --    1.61823   1.63637   1.65501   1.66283   1.66765
  Beta virt. eigenvalues --    1.71021   1.72541   1.74291   1.75797   1.78874
  Beta virt. eigenvalues --    1.79570   1.80778   1.82271   1.83855   1.84484
  Beta virt. eigenvalues --    1.84783   1.86713   1.88218   1.88858   1.92003
  Beta virt. eigenvalues --    1.92830   1.98078   2.00887   2.03703   2.05439
  Beta virt. eigenvalues --    2.08322   2.12164   2.14079   2.14942   2.15213
  Beta virt. eigenvalues --    2.15922   2.17796   2.18236   2.19953   2.20505
  Beta virt. eigenvalues --    2.22000   2.23412   2.24529   2.26579   2.27273
  Beta virt. eigenvalues --    2.28545   2.29123   2.30846   2.32608   2.33431
  Beta virt. eigenvalues --    2.34503   2.35639   2.37234   2.38931   2.39828
  Beta virt. eigenvalues --    2.41377   2.42150   2.45139   2.46706   2.47489
  Beta virt. eigenvalues --    2.50372   2.51053   2.52407   2.53409   2.54971
  Beta virt. eigenvalues --    2.55649   2.56785   2.58795   2.60002   2.61055
  Beta virt. eigenvalues --    2.62705   2.65540   2.66916   2.68288   2.68564
  Beta virt. eigenvalues --    2.70025   2.71064   2.73124   2.73876   2.74394
  Beta virt. eigenvalues --    2.78574   2.80126   2.82140   2.82440   2.83290
  Beta virt. eigenvalues --    2.84828   2.85850   2.86917   2.87973   2.90197
  Beta virt. eigenvalues --    2.93066   2.94234   2.94609   2.97657   3.00743
  Beta virt. eigenvalues --    3.02290   3.04651   3.08492   3.09505   3.11361
  Beta virt. eigenvalues --    3.12780   3.13256   3.16298   3.17598   3.23796
  Beta virt. eigenvalues --    3.26292   3.30618   3.31930   3.37514   3.41778
  Beta virt. eigenvalues --    3.46212   3.46788   3.51805   3.53975   3.55643
  Beta virt. eigenvalues --    3.58355   3.61848   3.86087   3.93128   4.25241
  Beta virt. eigenvalues --    4.43832   4.54472   4.62565   4.67538   4.73933
  Beta virt. eigenvalues --    4.76587   4.77840   4.82045   4.82942   4.83627
  Beta virt. eigenvalues --    4.91092   4.93090   5.00055   5.05900   5.12418
  Beta virt. eigenvalues --    5.22579   5.36746   5.82137
          Condensed to atoms (all electrons):
               1          2          3          4          5          6
     1  C    5.120712   0.311741   0.461435  -0.069123  -0.094064   0.003100
     2  C    0.311741   5.143018  -0.031861  -0.012892   0.004799  -0.000039
     3  C    0.461435  -0.031861   4.414681   0.455895   0.400720  -0.044944
     4  O   -0.069123  -0.012892   0.455895   8.341053  -0.074195  -0.000203
     5  C   -0.094064   0.004799   0.400720  -0.074195   4.998892   0.194816
     6  O    0.003100  -0.000039  -0.044944  -0.000203   0.194816   8.486315
     7  C   -0.008765  -0.000473  -0.040151   0.004386   0.473981  -0.057349
     8  O   -0.000057   0.000001   0.001869  -0.000010  -0.060985  -0.002778
     9  C   -0.032538   0.002180  -0.012802  -0.000079  -0.039822   0.002007
    10  O    0.003708  -0.000038  -0.000103  -0.000000   0.003904  -0.000008
    11  C    0.536898  -0.045791  -0.033758   0.003942  -0.011856  -0.000128
    12  C   -0.045474  -0.015006   0.002216  -0.000047  -0.000331   0.000001
    13  H   -0.039305   0.385631  -0.000975   0.000328  -0.000112   0.000000
    14  H   -0.042420   0.391348  -0.003088   0.015545   0.000788  -0.000005
    15  H   -0.043983   0.389015   0.000840   0.000296   0.000008   0.000000
    16  C   -0.000364  -0.000002  -0.004141  -0.010449  -0.044877   0.206472
    17  H   -0.000107   0.000014  -0.000254   0.010822  -0.006729  -0.032602
    18  H    0.000107  -0.000001   0.000353   0.000300  -0.001288  -0.038952
    19  H    0.000004  -0.000000  -0.000087   0.000237   0.005069  -0.035987
    20  C    0.000052  -0.000000  -0.000153   0.000001  -0.006398   0.000751
    21  H   -0.000026   0.000000  -0.000154   0.000000   0.003349  -0.000141
    22  H   -0.000001   0.000000   0.000004  -0.000000  -0.000050  -0.000014
    23  H   -0.000006   0.000000   0.000031  -0.000000   0.000058   0.000013
    24  H   -0.000194  -0.002216   0.000213  -0.000000  -0.000028  -0.000000
    25  H    0.002096   0.000093   0.000001   0.000000  -0.000048   0.000000
    26  C   -0.001301  -0.000585   0.000069   0.000001  -0.000025  -0.000000
    27  H   -0.000110  -0.000689  -0.000017   0.000000  -0.000000   0.000000
    28  C   -0.000006  -0.000001  -0.000001  -0.000000   0.000003  -0.000000
    29  C    0.000193   0.000021   0.000010   0.000000  -0.000005  -0.000000
    30  H    0.000000  -0.000000   0.000000   0.000000  -0.000000   0.000000
    31  H   -0.000011  -0.000001   0.000001  -0.000000  -0.000005   0.000000
    32  C   -0.000000   0.000001  -0.000000   0.000000   0.000000  -0.000000
    33  H    0.000001  -0.000002   0.000000   0.000000  -0.000000   0.000000
    34  H    0.000000  -0.000000   0.000000   0.000000  -0.000000  -0.000000
    35  H    0.000001   0.000000  -0.000000  -0.000000  -0.000000   0.000000
    36  H    0.000000   0.000000  -0.000000  -0.000000   0.000000   0.000000
    37  H   -0.000006   0.000000   0.000143  -0.000018  -0.001426   0.027646
    38  O   -0.000000  -0.000000   0.000004   0.000000   0.001145  -0.008158
    39  H   -0.000000   0.000000   0.000003   0.000000   0.000067   0.000229
               7          8          9         10         11         12
     1  C   -0.008765  -0.000057  -0.032538   0.003708   0.536898  -0.045474
     2  C   -0.000473   0.000001   0.002180  -0.000038  -0.045791  -0.015006
     3  C   -0.040151   0.001869  -0.012802  -0.000103  -0.033758   0.002216
     4  O    0.004386  -0.000010  -0.000079  -0.000000   0.003942  -0.000047
     5  C    0.473981  -0.060985  -0.039822   0.003904  -0.011856  -0.000331
     6  O   -0.057349  -0.002778   0.002007  -0.000008  -0.000128   0.000001
     7  C    4.968541   0.224971   0.396937  -0.074887  -0.095085   0.004458
     8  O    0.224971   8.433792  -0.050307  -0.000787   0.003820  -0.000051
     9  C    0.396937  -0.050307   4.468038   0.441787   0.435529  -0.033080
    10  O   -0.074887  -0.000787   0.441787   8.425485  -0.077424  -0.008536
    11  C   -0.095085   0.003820   0.435529  -0.077424   5.211725   0.299752
    12  C    0.004458  -0.000051  -0.033080  -0.008536   0.299752   5.133110
    13  H    0.000026   0.000000  -0.000032   0.000000  -0.001670   0.000195
    14  H   -0.000030   0.000000  -0.000022   0.000000   0.002140   0.000178
    15  H   -0.000013  -0.000000   0.000101  -0.000000  -0.001137  -0.002069
    16  C   -0.002883   0.000305  -0.000029   0.000001   0.000023  -0.000000
    17  H   -0.000252   0.000004   0.000021  -0.000000  -0.000013   0.000000
    18  H    0.002531   0.000160  -0.000065  -0.000000  -0.000014   0.000000
    19  H   -0.000030  -0.000013   0.000002  -0.000000  -0.000000   0.000000
    20  C   -0.046846   0.217869  -0.005477  -0.006651  -0.000524   0.000002
    21  H   -0.002341  -0.041583   0.000372   0.000251   0.000150  -0.000000
    22  H    0.005153  -0.035782  -0.000043   0.000117   0.000008  -0.000000
    23  H   -0.006655  -0.034704   0.000330   0.011964  -0.000303   0.000004
    24  H    0.000070   0.000000   0.001934   0.000325  -0.055262   0.406424
    25  H    0.000610  -0.000003  -0.003699   0.012161  -0.041088   0.399766
    26  C   -0.000047   0.000001  -0.004224  -0.000239  -0.065457   0.335989
    27  H    0.000004  -0.000000   0.000136  -0.000022   0.000434  -0.040722
    28  C   -0.000082   0.000000  -0.000024  -0.013123   0.001149  -0.007109
    29  C   -0.000005   0.000000   0.000873   0.000706  -0.003922  -0.040535
    30  H    0.000000   0.000000   0.000035   0.000201  -0.000105   0.000485
    31  H    0.000210  -0.000005  -0.001188   0.023776  -0.001455  -0.001844
    32  C   -0.000001   0.000000  -0.000019   0.000002  -0.000182   0.003702
    33  H    0.000000  -0.000000  -0.000000   0.000000  -0.000007   0.000096
    34  H   -0.000000   0.000000   0.000000  -0.000000  -0.000009  -0.000103
    35  H    0.000000  -0.000000   0.000002  -0.000000   0.000041  -0.000085
    36  H    0.000001  -0.000000  -0.000030   0.000040   0.000059   0.000232
    37  H   -0.000632   0.000928   0.000011   0.000000   0.000001   0.000000
    38  O   -0.000124  -0.000013  -0.000003  -0.000000   0.000000   0.000000
    39  H   -0.000050  -0.000050  -0.000003   0.000000   0.000000  -0.000000
              13         14         15         16         17         18
     1  C   -0.039305  -0.042420  -0.043983  -0.000364  -0.000107   0.000107
     2  C    0.385631   0.391348   0.389015  -0.000002   0.000014  -0.000001
     3  C   -0.000975  -0.003088   0.000840  -0.004141  -0.000254   0.000353
     4  O    0.000328   0.015545   0.000296  -0.010449   0.010822   0.000300
     5  C   -0.000112   0.000788   0.000008  -0.044877  -0.006729  -0.001288
     6  O    0.000000  -0.000005   0.000000   0.206472  -0.032602  -0.038952
     7  C    0.000026  -0.000030  -0.000013  -0.002883  -0.000252   0.002531
     8  O    0.000000   0.000000  -0.000000   0.000305   0.000004   0.000160
     9  C   -0.000032  -0.000022   0.000101  -0.000029   0.000021  -0.000065
    10  O    0.000000   0.000000  -0.000000   0.000001  -0.000000  -0.000000
    11  C   -0.001670   0.002140  -0.001137   0.000023  -0.000013  -0.000014
    12  C    0.000195   0.000178  -0.002069  -0.000000   0.000000   0.000000
    13  H    0.571491  -0.025029  -0.036412  -0.000000   0.000001   0.000000
    14  H   -0.025029   0.474680  -0.022763   0.000003  -0.000002  -0.000000
    15  H   -0.036412  -0.022763   0.571829   0.000000  -0.000000  -0.000000
    16  C   -0.000000   0.000003   0.000000   4.860917   0.391019   0.382608
    17  H    0.000001  -0.000002  -0.000000   0.391019   0.498464  -0.038120
    18  H    0.000000  -0.000000  -0.000000   0.382608  -0.038120   0.584650
    19  H    0.000000  -0.000000   0.000000   0.391564  -0.027309  -0.033131
    20  C    0.000000  -0.000000  -0.000000  -0.000131   0.000000   0.000020
    21  H   -0.000000  -0.000000   0.000000   0.000043   0.000001  -0.000007
    22  H   -0.000000   0.000000   0.000000   0.000003  -0.000000  -0.000001
    23  H   -0.000000   0.000000  -0.000000   0.000000   0.000000   0.000000
    24  H   -0.000735   0.000047   0.002154   0.000000   0.000000  -0.000000
    25  H   -0.000030   0.000004   0.000052  -0.000000  -0.000000  -0.000000
    26  C   -0.000010  -0.000005  -0.000227  -0.000000  -0.000000   0.000000
    27  H    0.000878   0.000022   0.000060  -0.000000   0.000000  -0.000000
    28  C    0.000000   0.000000   0.000000   0.000000  -0.000000   0.000000
    29  C    0.000045  -0.000000   0.000003  -0.000000  -0.000000   0.000000
    30  H    0.000000  -0.000000  -0.000000   0.000000   0.000000  -0.000000
    31  H   -0.000000   0.000000  -0.000000   0.000000   0.000000  -0.000000
    32  C    0.000001  -0.000000  -0.000000   0.000000  -0.000000   0.000000
    33  H    0.000002   0.000000  -0.000000   0.000000  -0.000000  -0.000000
    34  H    0.000000   0.000000   0.000000  -0.000000  -0.000000   0.000000
    35  H   -0.000001   0.000000   0.000000   0.000000   0.000000  -0.000000
    36  H   -0.000000  -0.000000   0.000000   0.000000   0.000000  -0.000000
    37  H    0.000000   0.000000  -0.000000  -0.002118   0.000131   0.000204
    38  O    0.000000  -0.000000   0.000000   0.000333  -0.000009  -0.000016
    39  H   -0.000000   0.000000   0.000000   0.000000  -0.000000   0.000000
              19         20         21         22         23         24
     1  C    0.000004   0.000052  -0.000026  -0.000001  -0.000006  -0.000194
     2  C   -0.000000  -0.000000   0.000000   0.000000   0.000000  -0.002216
     3  C   -0.000087  -0.000153  -0.000154   0.000004   0.000031   0.000213
     4  O    0.000237   0.000001   0.000000  -0.000000  -0.000000  -0.000000
     5  C    0.005069  -0.006398   0.003349  -0.000050   0.000058  -0.000028
     6  O   -0.035987   0.000751  -0.000141  -0.000014   0.000013  -0.000000
     7  C   -0.000030  -0.046846  -0.002341   0.005153  -0.006655   0.000070
     8  O   -0.000013   0.217869  -0.041583  -0.035782  -0.034704   0.000000
     9  C    0.000002  -0.005477   0.000372  -0.000043   0.000330   0.001934
    10  O   -0.000000  -0.006651   0.000251   0.000117   0.011964   0.000325
    11  C   -0.000000  -0.000524   0.000150   0.000008  -0.000303  -0.055262
    12  C    0.000000   0.000002  -0.000000  -0.000000   0.000004   0.406424
    13  H    0.000000   0.000000  -0.000000  -0.000000  -0.000000  -0.000735
    14  H   -0.000000  -0.000000  -0.000000   0.000000   0.000000   0.000047
    15  H    0.000000  -0.000000   0.000000   0.000000  -0.000000   0.002154
    16  C    0.391564  -0.000131   0.000043   0.000003   0.000000   0.000000
    17  H   -0.027309   0.000000   0.000001  -0.000000   0.000000   0.000000
    18  H   -0.033131   0.000020  -0.000007  -0.000001   0.000000  -0.000000
    19  H    0.554273   0.000004   0.000000  -0.000000  -0.000000  -0.000000
    20  C    0.000004   4.848069   0.368546   0.394377   0.388545   0.000000
    21  H    0.000000   0.368546   0.636227  -0.034974  -0.040667   0.000000
    22  H   -0.000000   0.394377  -0.034974   0.557199  -0.028484   0.000000
    23  H   -0.000000   0.388545  -0.040667  -0.028484   0.516602  -0.000000
    24  H   -0.000000   0.000000   0.000000   0.000000  -0.000000   0.573140
    25  H   -0.000000  -0.000001  -0.000000   0.000000   0.000014  -0.024090
    26  C    0.000000   0.000000  -0.000000   0.000000  -0.000000  -0.047069
    27  H   -0.000000   0.000000  -0.000000  -0.000000   0.000000  -0.002832
    28  C   -0.000000  -0.000000   0.000000   0.000000   0.000001   0.000075
    29  C    0.000000  -0.000000   0.000000   0.000000  -0.000000   0.001461
    30  H    0.000000   0.000000   0.000000  -0.000000  -0.000000   0.000050
    31  H    0.000000   0.000001  -0.000000  -0.000000  -0.000002   0.000071
    32  C    0.000000  -0.000000   0.000000   0.000000  -0.000000  -0.000107
    33  H    0.000000  -0.000000  -0.000000  -0.000000  -0.000000  -0.000012
    34  H    0.000000  -0.000000   0.000000   0.000000  -0.000000   0.000011
    35  H   -0.000000   0.000000  -0.000000  -0.000000   0.000000  -0.000002
    36  H   -0.000000  -0.000000  -0.000000  -0.000000   0.000000  -0.000009
    37  H   -0.000887  -0.000159  -0.000736  -0.000021   0.000033  -0.000000
    38  O    0.000314  -0.002207   0.005882  -0.000018   0.000039   0.000000
    39  H   -0.000007  -0.000712   0.004000   0.000032  -0.000015   0.000000
              25         26         27         28         29         30
     1  C    0.002096  -0.001301  -0.000110  -0.000006   0.000193   0.000000
     2  C    0.000093  -0.000585  -0.000689  -0.000001   0.000021  -0.000000
     3  C    0.000001   0.000069  -0.000017  -0.000001   0.000010   0.000000
     4  O    0.000000   0.000001   0.000000  -0.000000   0.000000   0.000000
     5  C   -0.000048  -0.000025  -0.000000   0.000003  -0.000005  -0.000000
     6  O    0.000000  -0.000000   0.000000  -0.000000  -0.000000   0.000000
     7  C    0.000610  -0.000047   0.000004  -0.000082  -0.000005   0.000000
     8  O   -0.000003   0.000001  -0.000000   0.000000   0.000000   0.000000
     9  C   -0.003699  -0.004224   0.000136  -0.000024   0.000873   0.000035
    10  O    0.012161  -0.000239  -0.000022  -0.013123   0.000706   0.000201
    11  C   -0.041088  -0.065457   0.000434   0.001149  -0.003922  -0.000105
    12  C    0.399766   0.335989  -0.040722  -0.007109  -0.040535   0.000485
    13  H   -0.000030  -0.000010   0.000878   0.000000   0.000045   0.000000
    14  H    0.000004  -0.000005   0.000022   0.000000  -0.000000  -0.000000
    15  H    0.000052  -0.000227   0.000060   0.000000   0.000003  -0.000000
    16  C   -0.000000  -0.000000  -0.000000   0.000000  -0.000000   0.000000
    17  H   -0.000000  -0.000000   0.000000  -0.000000  -0.000000   0.000000
    18  H   -0.000000   0.000000  -0.000000   0.000000   0.000000  -0.000000
    19  H   -0.000000   0.000000  -0.000000  -0.000000   0.000000   0.000000
    20  C   -0.000001   0.000000   0.000000  -0.000000  -0.000000   0.000000
    21  H   -0.000000  -0.000000  -0.000000   0.000000   0.000000   0.000000
    22  H    0.000000   0.000000  -0.000000   0.000000   0.000000  -0.000000
    23  H    0.000014  -0.000000   0.000000   0.000001  -0.000000  -0.000000
    24  H   -0.024090  -0.047069  -0.002832   0.000075   0.001461   0.000050
    25  H    0.478002  -0.038116   0.002749  -0.000124  -0.000803  -0.000199
    26  C   -0.038116   5.006450   0.391224  -0.041610   0.711109  -0.003267
    27  H    0.002749   0.391224   0.540261   0.003791  -0.044101  -0.000142
    28  C   -0.000124  -0.041610   0.003791   5.190344   0.339886   0.373804
    29  C   -0.000803   0.711109  -0.044101   0.339886   4.850273  -0.043889
    30  H   -0.000199  -0.003267  -0.000142   0.373804  -0.043889   0.600755
    31  H   -0.000912  -0.001567  -0.000015   0.375663  -0.028938  -0.017586
    32  C    0.000076  -0.046223  -0.006975  -0.069078   0.353988   0.000368
    33  H    0.000007  -0.000417   0.003577   0.003922  -0.041186  -0.000133
    34  H    0.000001  -0.001366   0.000147   0.000443  -0.045388   0.002176
    35  H   -0.000002  -0.000786   0.000213  -0.001635  -0.041032  -0.000306
    36  H    0.000050   0.001360  -0.000116   0.391300  -0.045811  -0.038677
    37  H   -0.000000   0.000000  -0.000000   0.000000  -0.000000   0.000000
    38  O   -0.000000  -0.000000   0.000000  -0.000000  -0.000000  -0.000000
    39  H    0.000000   0.000000  -0.000000   0.000000  -0.000000  -0.000000
              31         32         33         34         35         36
     1  C   -0.000011  -0.000000   0.000001   0.000000   0.000001   0.000000
     2  C   -0.000001   0.000001  -0.000002  -0.000000   0.000000   0.000000
     3  C    0.000001  -0.000000   0.000000   0.000000  -0.000000  -0.000000
     4  O   -0.000000   0.000000   0.000000   0.000000  -0.000000  -0.000000
     5  C   -0.000005   0.000000  -0.000000  -0.000000  -0.000000   0.000000
     6  O    0.000000  -0.000000   0.000000  -0.000000   0.000000   0.000000
     7  C    0.000210  -0.000001   0.000000  -0.000000   0.000000   0.000001
     8  O   -0.000005   0.000000  -0.000000   0.000000  -0.000000  -0.000000
     9  C   -0.001188  -0.000019  -0.000000   0.000000   0.000002  -0.000030
    10  O    0.023776   0.000002   0.000000  -0.000000  -0.000000   0.000040
    11  C   -0.001455  -0.000182  -0.000007  -0.000009   0.000041   0.000059
    12  C   -0.001844   0.003702   0.000096  -0.000103  -0.000085   0.000232
    13  H   -0.000000   0.000001   0.000002   0.000000  -0.000001  -0.000000
    14  H    0.000000  -0.000000   0.000000   0.000000   0.000000  -0.000000
    15  H   -0.000000  -0.000000  -0.000000   0.000000   0.000000   0.000000
    16  C    0.000000   0.000000   0.000000  -0.000000   0.000000   0.000000
    17  H    0.000000  -0.000000  -0.000000  -0.000000   0.000000   0.000000
    18  H   -0.000000   0.000000  -0.000000   0.000000  -0.000000  -0.000000
    19  H    0.000000   0.000000   0.000000   0.000000  -0.000000  -0.000000
    20  C    0.000001  -0.000000  -0.000000  -0.000000   0.000000  -0.000000
    21  H   -0.000000   0.000000  -0.000000   0.000000  -0.000000  -0.000000
    22  H   -0.000000   0.000000  -0.000000   0.000000  -0.000000  -0.000000
    23  H   -0.000002  -0.000000  -0.000000  -0.000000   0.000000   0.000000
    24  H    0.000071  -0.000107  -0.000012   0.000011  -0.000002  -0.000009
    25  H   -0.000912   0.000076   0.000007   0.000001  -0.000002   0.000050
    26  C   -0.001567  -0.046223  -0.000417  -0.001366  -0.000786   0.001360
    27  H   -0.000015  -0.006975   0.003577   0.000147   0.000213  -0.000116
    28  C    0.375663  -0.069078   0.003922   0.000443  -0.001635   0.391300
    29  C   -0.028938   0.353988  -0.041186  -0.045388  -0.041032  -0.045811
    30  H   -0.017586   0.000368  -0.000133   0.002176  -0.000306  -0.038677
    31  H    0.398872   0.002886  -0.000085  -0.000015  -0.000062  -0.021082
    32  C    0.002886   5.105427   0.390078   0.384903   0.383907  -0.003907
    33  H   -0.000085   0.390078   0.545670  -0.027639  -0.025762   0.000106
    34  H   -0.000015   0.384903  -0.027639   0.589702  -0.039942  -0.000782
    35  H   -0.000062   0.383907  -0.025762  -0.039942   0.571655   0.003187
    36  H   -0.021082  -0.003907   0.000106  -0.000782   0.003187   0.576596
    37  H    0.000000   0.000000  -0.000000   0.000000  -0.000000  -0.000000
    38  O    0.000000  -0.000000   0.000000   0.000000   0.000000   0.000000
    39  H   -0.000000  -0.000000  -0.000000   0.000000  -0.000000  -0.000000
              37         38         39
     1  C   -0.000006  -0.000000  -0.000000
     2  C    0.000000  -0.000000   0.000000
     3  C    0.000143   0.000004   0.000003
     4  O   -0.000018   0.000000   0.000000
     5  C   -0.001426   0.001145   0.000067
     6  O    0.027646  -0.008158   0.000229
     7  C   -0.000632  -0.000124  -0.000050
     8  O    0.000928  -0.000013  -0.000050
     9  C    0.000011  -0.000003  -0.000003
    10  O    0.000000  -0.000000   0.000000
    11  C    0.000001   0.000000   0.000000
    12  C    0.000000   0.000000  -0.000000
    13  H    0.000000   0.000000  -0.000000
    14  H    0.000000  -0.000000   0.000000
    15  H   -0.000000   0.000000   0.000000
    16  C   -0.002118   0.000333   0.000000
    17  H    0.000131  -0.000009  -0.000000
    18  H    0.000204  -0.000016   0.000000
    19  H   -0.000887   0.000314  -0.000007
    20  C   -0.000159  -0.002207  -0.000712
    21  H   -0.000736   0.005882   0.004000
    22  H   -0.000021  -0.000018   0.000032
    23  H    0.000033   0.000039  -0.000015
    24  H   -0.000000   0.000000   0.000000
    25  H   -0.000000  -0.000000   0.000000
    26  C    0.000000  -0.000000   0.000000
    27  H   -0.000000   0.000000  -0.000000
    28  C    0.000000  -0.000000   0.000000
    29  C   -0.000000  -0.000000  -0.000000
    30  H    0.000000  -0.000000  -0.000000
    31  H    0.000000   0.000000  -0.000000
    32  C    0.000000  -0.000000  -0.000000
    33  H   -0.000000   0.000000  -0.000000
    34  H    0.000000   0.000000   0.000000
    35  H   -0.000000   0.000000  -0.000000
    36  H   -0.000000   0.000000  -0.000000
    37  H    0.238758   0.254848  -0.019689
    38  O    0.254848   8.424727   0.265863
    39  H   -0.019689   0.265863   0.324840
          Atomic-Atomic Spin Densities.
               1          2          3          4          5          6
     1  C    0.349395  -0.005617   0.067960  -0.005859  -0.009617   0.000068
     2  C   -0.005617  -0.047782  -0.003924   0.000716  -0.000043  -0.000000
     3  C    0.067960  -0.003924  -0.103762  -0.117195   0.066606  -0.002460
     4  O   -0.005859   0.000716  -0.117195   0.530309  -0.004693   0.000563
     5  C   -0.009617  -0.000043   0.066606  -0.004693   0.291084  -0.018686
     6  O    0.000068  -0.000000  -0.002460   0.000563  -0.018686   0.004625
     7  C   -0.003719   0.000017  -0.004488   0.000420  -0.059569   0.004313
     8  O    0.000017  -0.000000  -0.000026  -0.000000   0.002351  -0.000236
     9  C   -0.007413  -0.000062  -0.002529   0.000044  -0.009068  -0.000001
    10  O    0.000612   0.000000   0.000031  -0.000000   0.000496  -0.000000
    11  C   -0.075891   0.004484  -0.006326   0.000517  -0.002575   0.000006
    12  C    0.001854   0.000147  -0.000126   0.000001   0.000018  -0.000000
    13  H   -0.006430   0.003390  -0.000356   0.000161  -0.000017   0.000000
    14  H   -0.000530   0.003032   0.000653  -0.001904  -0.000027   0.000000
    15  H   -0.004981   0.003065  -0.000110   0.000044  -0.000008   0.000000
    16  C   -0.000011  -0.000000  -0.000593  -0.000098  -0.003669   0.002089
    17  H   -0.000074  -0.000000  -0.001290  -0.000135  -0.001005   0.000106
    18  H    0.000005   0.000000   0.000407  -0.000073   0.001020  -0.000229
    19  H    0.000001  -0.000000  -0.000021  -0.000032   0.000453   0.000110
    20  C    0.000026   0.000000  -0.000030  -0.000000   0.001965  -0.000083
    21  H   -0.000008   0.000000   0.000005   0.000000  -0.000499   0.000059
    22  H   -0.000000  -0.000000  -0.000000   0.000000  -0.000026   0.000002
    23  H    0.000011  -0.000000   0.000007  -0.000000   0.000181  -0.000003
    24  H    0.000367  -0.000295   0.000019  -0.000000   0.000002  -0.000000
    25  H    0.000317  -0.000010  -0.000005  -0.000000   0.000018   0.000000
    26  C    0.000390   0.000038   0.000003  -0.000001   0.000018  -0.000000
    27  H   -0.000184   0.000020  -0.000010   0.000000  -0.000002   0.000000
    28  C   -0.000004  -0.000000  -0.000000   0.000000  -0.000000   0.000000
    29  C   -0.000001  -0.000001   0.000001  -0.000000   0.000001  -0.000000
    30  H    0.000000   0.000000   0.000000  -0.000000   0.000000  -0.000000
    31  H    0.000007   0.000000   0.000000  -0.000000  -0.000000  -0.000000
    32  C    0.000004  -0.000000   0.000000  -0.000000   0.000000  -0.000000
    33  H    0.000000   0.000000   0.000000  -0.000000   0.000000  -0.000000
    34  H    0.000000  -0.000000   0.000000  -0.000000   0.000000  -0.000000
    35  H   -0.000000   0.000000  -0.000000   0.000000  -0.000000   0.000000
    36  H   -0.000000   0.000000  -0.000000   0.000000  -0.000000   0.000000
    37  H   -0.000001  -0.000000  -0.000037   0.000005  -0.000451   0.000605
    38  O    0.000000  -0.000000   0.000002  -0.000000   0.000091  -0.000133
    39  H    0.000000  -0.000000   0.000000  -0.000000   0.000005  -0.000005
               7          8          9         10         11         12
     1  C   -0.003719   0.000017  -0.007413   0.000612  -0.075891   0.001854
     2  C    0.000017  -0.000000  -0.000062   0.000000   0.004484   0.000147
     3  C   -0.004488  -0.000026  -0.002529   0.000031  -0.006326  -0.000126
     4  O    0.000420  -0.000000   0.000044  -0.000000   0.000517   0.000001
     5  C   -0.059569   0.002351  -0.009068   0.000496  -0.002575   0.000018
     6  O    0.004313  -0.000236  -0.000001  -0.000000   0.000006  -0.000000
     7  C   -0.180753   0.008910   0.078312  -0.001742  -0.000158   0.000064
     8  O    0.008910   0.000119  -0.003826   0.000372  -0.000072   0.000000
     9  C    0.078312  -0.003826   0.190517  -0.136606   0.085291  -0.005011
    10  O   -0.001742   0.000372  -0.136606   0.454072  -0.001537  -0.000304
    11  C   -0.000158  -0.000072   0.085291  -0.001537  -0.186180   0.008928
    12  C    0.000064   0.000000  -0.005011  -0.000304   0.008928   0.004038
    13  H    0.000010  -0.000000   0.000021  -0.000000   0.000807  -0.000069
    14  H    0.000001  -0.000000  -0.000003  -0.000000  -0.000061   0.000021
    15  H    0.000006  -0.000000   0.000016  -0.000001   0.000771  -0.000173
    16  C    0.001505  -0.000037  -0.000018  -0.000000   0.000015  -0.000000
    17  H    0.000084  -0.000000   0.000003  -0.000000   0.000006  -0.000000
    18  H   -0.000689   0.000045  -0.000002   0.000000  -0.000006   0.000000
    19  H   -0.000004   0.000000  -0.000001   0.000000   0.000000   0.000000
    20  C    0.007370  -0.002180  -0.000954  -0.000065  -0.000080  -0.000000
    21  H   -0.001557   0.000515   0.000263  -0.000022   0.000013   0.000000
    22  H   -0.000005  -0.000033   0.000020  -0.000037   0.000001   0.000000
    23  H   -0.000685   0.000002  -0.002442   0.000295  -0.000092  -0.000001
    24  H   -0.000012   0.000000  -0.000142   0.000016   0.000379  -0.000757
    25  H   -0.000099  -0.000000  -0.001308  -0.000482   0.001084   0.000649
    26  C   -0.000054   0.000000  -0.000217   0.000235   0.000772  -0.002885
    27  H    0.000003  -0.000000   0.000062  -0.000003   0.000453  -0.000221
    28  C    0.000008  -0.000000   0.000392   0.000355  -0.000060   0.000057
    29  C   -0.000006   0.000000  -0.000385   0.000042  -0.000924   0.000461
    30  H   -0.000000   0.000000  -0.000017   0.000003   0.000004  -0.000032
    31  H   -0.000024   0.000001  -0.000719  -0.001818   0.000113  -0.000075
    32  C   -0.000000   0.000000  -0.000014   0.000001   0.000008  -0.000007
    33  H   -0.000000   0.000000  -0.000000   0.000000  -0.000002   0.000001
    34  H   -0.000000   0.000000  -0.000000   0.000000   0.000000   0.000000
    35  H    0.000000  -0.000000   0.000003  -0.000001  -0.000001  -0.000000
    36  H    0.000000  -0.000000   0.000025  -0.000030   0.000000  -0.000000
    37  H    0.000126  -0.000015   0.000002  -0.000000   0.000001   0.000000
    38  O   -0.000018   0.000001  -0.000000   0.000000  -0.000000  -0.000000
    39  H    0.000004  -0.000000  -0.000000  -0.000000   0.000000  -0.000000
              13         14         15         16         17         18
     1  C   -0.006430  -0.000530  -0.004981  -0.000011  -0.000074   0.000005
     2  C    0.003390   0.003032   0.003065  -0.000000  -0.000000   0.000000
     3  C   -0.000356   0.000653  -0.000110  -0.000593  -0.001290   0.000407
     4  O    0.000161  -0.001904   0.000044  -0.000098  -0.000135  -0.000073
     5  C   -0.000017  -0.000027  -0.000008  -0.003669  -0.001005   0.001020
     6  O    0.000000   0.000000   0.000000   0.002089   0.000106  -0.000229
     7  C    0.000010   0.000001   0.000006   0.001505   0.000084  -0.000689
     8  O   -0.000000  -0.000000  -0.000000  -0.000037  -0.000000   0.000045
     9  C    0.000021  -0.000003   0.000016  -0.000018   0.000003  -0.000002
    10  O   -0.000000  -0.000000  -0.000001  -0.000000  -0.000000   0.000000
    11  C    0.000807  -0.000061   0.000771   0.000015   0.000006  -0.000006
    12  C   -0.000069   0.000021  -0.000173  -0.000000  -0.000000   0.000000
    13  H    0.019275  -0.000979  -0.003427  -0.000000   0.000001  -0.000000
    14  H   -0.000979   0.000874   0.000208   0.000000   0.000000   0.000000
    15  H   -0.003427   0.000208   0.013827   0.000000  -0.000000   0.000000
    16  C   -0.000000   0.000000   0.000000   0.002578   0.000949  -0.000014
    17  H    0.000001   0.000000  -0.000000   0.000949   0.001651  -0.000509
    18  H   -0.000000   0.000000   0.000000  -0.000014  -0.000509  -0.000644
    19  H    0.000000   0.000000  -0.000000  -0.000122  -0.000547   0.000601
    20  C    0.000000  -0.000000  -0.000000   0.000052   0.000001  -0.000011
    21  H   -0.000000   0.000000   0.000000  -0.000011  -0.000000   0.000001
    22  H   -0.000000   0.000000   0.000000  -0.000001  -0.000000   0.000000
    23  H    0.000000  -0.000000  -0.000000   0.000001   0.000000  -0.000000
    24  H    0.000128  -0.000012  -0.000294   0.000000   0.000000  -0.000000
    25  H    0.000015  -0.000001  -0.000031   0.000000   0.000000  -0.000000
    26  C   -0.000233   0.000003   0.000084  -0.000000  -0.000000   0.000000
    27  H    0.000173  -0.000001  -0.000034   0.000000   0.000000  -0.000000
    28  C    0.000000  -0.000000  -0.000000   0.000000   0.000000  -0.000000
    29  C   -0.000001  -0.000000   0.000001  -0.000000  -0.000000   0.000000
    30  H   -0.000000   0.000000   0.000000  -0.000000  -0.000000   0.000000
    31  H   -0.000000   0.000000   0.000000  -0.000000  -0.000000   0.000000
    32  C   -0.000001   0.000000   0.000000  -0.000000  -0.000000   0.000000
    33  H   -0.000000   0.000000   0.000000  -0.000000  -0.000000   0.000000
    34  H   -0.000000   0.000000   0.000000  -0.000000  -0.000000   0.000000
    35  H    0.000000  -0.000000  -0.000000   0.000000   0.000000  -0.000000
    36  H    0.000000  -0.000000  -0.000000   0.000000   0.000000  -0.000000
    37  H   -0.000000  -0.000000   0.000000  -0.000097  -0.000008   0.000005
    38  O    0.000000  -0.000000  -0.000000   0.000015   0.000001  -0.000000
    39  H    0.000000  -0.000000  -0.000000   0.000000   0.000000  -0.000000
              19         20         21         22         23         24
     1  C    0.000001   0.000026  -0.000008  -0.000000   0.000011   0.000367
     2  C   -0.000000   0.000000   0.000000  -0.000000  -0.000000  -0.000295
     3  C   -0.000021  -0.000030   0.000005  -0.000000   0.000007   0.000019
     4  O   -0.000032  -0.000000   0.000000   0.000000  -0.000000  -0.000000
     5  C    0.000453   0.001965  -0.000499  -0.000026   0.000181   0.000002
     6  O    0.000110  -0.000083   0.000059   0.000002  -0.000003  -0.000000
     7  C   -0.000004   0.007370  -0.001557  -0.000005  -0.000685  -0.000012
     8  O    0.000000  -0.002180   0.000515  -0.000033   0.000002   0.000000
     9  C   -0.000001  -0.000954   0.000263   0.000020  -0.002442  -0.000142
    10  O    0.000000  -0.000065  -0.000022  -0.000037   0.000295   0.000016
    11  C    0.000000  -0.000080   0.000013   0.000001  -0.000092   0.000379
    12  C    0.000000  -0.000000   0.000000   0.000000  -0.000001  -0.000757
    13  H    0.000000   0.000000  -0.000000  -0.000000   0.000000   0.000128
    14  H    0.000000  -0.000000   0.000000   0.000000  -0.000000  -0.000012
    15  H   -0.000000  -0.000000   0.000000   0.000000  -0.000000  -0.000294
    16  C   -0.000122   0.000052  -0.000011  -0.000001   0.000001   0.000000
    17  H   -0.000547   0.000001  -0.000000  -0.000000   0.000000   0.000000
    18  H    0.000601  -0.000011   0.000001   0.000000  -0.000000  -0.000000
    19  H    0.000157  -0.000000  -0.000000   0.000000  -0.000000  -0.000000
    20  C   -0.000000  -0.014308   0.001989   0.001162   0.001119   0.000000
    21  H   -0.000000   0.001989  -0.000848  -0.000220  -0.000293  -0.000000
    22  H    0.000000   0.001162  -0.000220  -0.000305  -0.000633  -0.000000
    23  H   -0.000000   0.001119  -0.000293  -0.000633   0.002197   0.000000
    24  H   -0.000000   0.000000  -0.000000  -0.000000   0.000000  -0.001261
    25  H   -0.000000  -0.000000   0.000000  -0.000000   0.000003   0.000383
    26  C    0.000000  -0.000000   0.000000   0.000000  -0.000000   0.000334
    27  H   -0.000000   0.000000  -0.000000  -0.000000   0.000000   0.000137
    28  C   -0.000000  -0.000000  -0.000000  -0.000000   0.000000   0.000026
    29  C    0.000000  -0.000000   0.000000   0.000000  -0.000000  -0.000210
    30  H    0.000000  -0.000000  -0.000000   0.000000  -0.000000  -0.000002
    31  H    0.000000  -0.000000   0.000000   0.000000  -0.000000  -0.000022
    32  C    0.000000  -0.000000   0.000000   0.000000  -0.000000   0.000001
    33  H    0.000000   0.000000  -0.000000   0.000000  -0.000000  -0.000000
    34  H    0.000000  -0.000000   0.000000   0.000000  -0.000000   0.000000
    35  H   -0.000000   0.000000  -0.000000  -0.000000   0.000000  -0.000000
    36  H   -0.000000   0.000000  -0.000000  -0.000000   0.000000   0.000000
    37  H    0.000059  -0.000055   0.000036   0.000004  -0.000003  -0.000000
    38  O   -0.000012   0.000014  -0.000012  -0.000001   0.000001   0.000000
    39  H    0.000000  -0.000007   0.000012  -0.000001  -0.000000   0.000000
              25         26         27         28         29         30
     1  C    0.000317   0.000390  -0.000184  -0.000004  -0.000001   0.000000
     2  C   -0.000010   0.000038   0.000020  -0.000000  -0.000001   0.000000
     3  C   -0.000005   0.000003  -0.000010  -0.000000   0.000001   0.000000
     4  O   -0.000000  -0.000001   0.000000   0.000000  -0.000000  -0.000000
     5  C    0.000018   0.000018  -0.000002  -0.000000   0.000001   0.000000
     6  O    0.000000  -0.000000   0.000000   0.000000  -0.000000  -0.000000
     7  C   -0.000099  -0.000054   0.000003   0.000008  -0.000006  -0.000000
     8  O   -0.000000   0.000000  -0.000000  -0.000000   0.000000   0.000000
     9  C   -0.001308  -0.000217   0.000062   0.000392  -0.000385  -0.000017
    10  O   -0.000482   0.000235  -0.000003   0.000355   0.000042   0.000003
    11  C    0.001084   0.000772   0.000453  -0.000060  -0.000924   0.000004
    12  C    0.000649  -0.002885  -0.000221   0.000057   0.000461  -0.000032
    13  H    0.000015  -0.000233   0.000173   0.000000  -0.000001  -0.000000
    14  H   -0.000001   0.000003  -0.000001  -0.000000  -0.000000   0.000000
    15  H   -0.000031   0.000084  -0.000034  -0.000000   0.000001   0.000000
[...]
    13  H(1)               0.00436      19.48219       6.95173       6.49856
    14  H(1)               0.00071       3.18300       1.13577       1.06173
    15  H(1)               0.00332      14.82375       5.28948       4.94467
    16  C(13)              0.00342       3.84815       1.37312       1.28361
    17  H(1)               0.00013       0.56051       0.20000       0.18697
    18  H(1)              -0.00017      -0.74138      -0.26454      -0.24730
    19  H(1)               0.00004       0.17734       0.06328       0.05915
    20  C(13)             -0.00470      -5.28087      -1.88435      -1.76151
    21  H(1)               0.00007       0.32790       0.11700       0.10938
    22  H(1)               0.00004       0.16015       0.05714       0.05342
    23  H(1)               0.00020       0.88940       0.31736       0.29667
    24  H(1)              -0.00020      -0.90344      -0.32237      -0.30136
    25  H(1)              -0.00023      -1.01298      -0.36146      -0.33789
    26  C(13)              0.00402       4.51633       1.61154       1.50649
    27  H(1)              -0.00072      -3.22045      -1.14914      -1.07423
    28  C(13)              0.00086       0.96394       0.34396       0.32154
    29  C(13)             -0.00642      -7.21262      -2.57364      -2.40587
    30  H(1)              -0.00055      -2.47405      -0.88280      -0.82526
    31  H(1)              -0.00003      -0.15426      -0.05504      -0.05146
    32  C(13)              0.00128       1.44333       0.51502       0.48144
    33  H(1)              -0.00006      -0.25109      -0.08959      -0.08375
    34  H(1)              -0.00048      -2.14360      -0.76489      -0.71503
    35  H(1)              -0.00050      -2.24391      -0.80068      -0.74849
    36  H(1)              -0.00032      -1.42527      -0.50857      -0.47542
    37  H(1)              -0.00002      -0.06798      -0.02426      -0.02267
    38  O(17)              0.00018      -0.10768      -0.03842      -0.03592
    39  H(1)              -0.00000      -0.01102      -0.00393      -0.00367
 --------------------------------------------------------
       Center         ----  Spin Dipole Couplings  ----
                      3XX-RR        3YY-RR        3ZZ-RR
 --------------------------------------------------------
     1   Atom       -0.059575     -0.093785      0.153361
     2   Atom        0.004110     -0.003457     -0.000653
     3   Atom       -0.004841      0.006537     -0.001696
     4   Atom       -0.404091     -0.702924      1.107014
     5   Atom       -0.052659     -0.082054      0.134713
     6   Atom       -0.012223     -0.006666      0.018889
     7   Atom        0.009565      0.027668     -0.037232
     8   Atom       -0.002249      0.004982     -0.002733
     9   Atom       -0.043754     -0.064289      0.108042
    10   Atom       -0.338844     -0.687155      1.025999
    11   Atom        0.019925      0.028101     -0.048026
    12   Atom        0.003224      0.000062     -0.003286
    13   Atom        0.002359      0.000685     -0.003045
    14   Atom        0.000420      0.002207     -0.002627
    15   Atom        0.001431     -0.000321     -0.001110
    16   Atom       -0.000607     -0.002180      0.002787
    17   Atom       -0.000213     -0.002865      0.003078
    18   Atom       -0.001043     -0.001819      0.002862
    19   Atom        0.001336     -0.001249     -0.000087
    20   Atom        0.002648     -0.000367     -0.002281
    21   Atom        0.001610      0.000400     -0.002010
    22   Atom        0.000930      0.000253     -0.001183
    23   Atom        0.003310      0.000824     -0.004134
    24   Atom        0.000633      0.000053     -0.000686
    25   Atom        0.002954     -0.001392     -0.001562
    26   Atom        0.009995     -0.011546      0.001550
    27   Atom        0.001062      0.001158     -0.002221
    28   Atom        0.003100     -0.001162     -0.001938
    29   Atom       -0.004280      0.012469     -0.008188
    30   Atom        0.002010     -0.001082     -0.000928
    31   Atom        0.009253     -0.004406     -0.004847
    32   Atom        0.001080     -0.000743     -0.000337
    33   Atom        0.000871     -0.000469     -0.000402
    34   Atom        0.000645     -0.000239     -0.000406
    35   Atom        0.000668     -0.000351     -0.000317
    36   Atom        0.001769     -0.001335     -0.000433
    37   Atom        0.001862     -0.000204     -0.001658
    38   Atom        0.001090     -0.000142     -0.000948
    39   Atom        0.001085     -0.000360     -0.000725
 --------------------------------------------------------
                        XY            XZ            YZ
 --------------------------------------------------------
     1   Atom       -0.014131     -0.101965      0.028152
     2   Atom       -0.000801      0.003003     -0.000512
     3   Atom        0.012390     -0.010555      0.009119
     4   Atom       -0.105306     -0.768406      0.229480
     5   Atom       -0.005955     -0.081862      0.023008
     6   Atom        0.004293     -0.031101     -0.008257
     7   Atom        0.005978      0.022436     -0.011800
     8   Atom       -0.006709      0.004411     -0.000577
     9   Atom        0.002832     -0.084296      0.017436
    10   Atom       -0.066134     -0.743014      0.107684
    11   Atom        0.004894      0.026841     -0.001058
    12   Atom       -0.002545      0.003679     -0.001667
    13   Atom       -0.002998      0.001586     -0.000675
    14   Atom       -0.004920      0.003589     -0.003229
    15   Atom       -0.002048      0.002450     -0.001953
    16   Atom        0.001091      0.005412      0.002075
    17   Atom       -0.000381      0.006669     -0.001240
    18   Atom       -0.000514      0.002449     -0.001347
    19   Atom       -0.000445      0.002271     -0.000395
    20   Atom       -0.002105     -0.000586     -0.002129
    21   Atom       -0.001328     -0.000031      0.000524
    22   Atom       -0.001285      0.000287     -0.000144
    23   Atom       -0.004610     -0.002299      0.001006
    24   Atom       -0.000404      0.001453     -0.000697
    25   Atom       -0.003058      0.004523     -0.002048
    26   Atom       -0.004014      0.021712     -0.001510
    27   Atom       -0.001126      0.000695      0.000891
    28   Atom        0.000599     -0.000741     -0.000190
    29   Atom        0.001732     -0.020821      0.002025
    30   Atom        0.000463     -0.000024     -0.000126
    31   Atom        0.001471     -0.001057     -0.000152
    32   Atom       -0.000060     -0.000718     -0.000049
    33   Atom       -0.000114     -0.000553     -0.000035
    34   Atom        0.000102     -0.000107     -0.000001
    35   Atom        0.000000     -0.000574     -0.000075
    36   Atom        0.000746     -0.001485     -0.000210
    37   Atom       -0.001867     -0.000214      0.000266
    38   Atom       -0.001183     -0.000448      0.000373
    39   Atom       -0.000781     -0.000630      0.000333
 --------------------------------------------------------


 ---------------------------------------------------------------------------------
              Anisotropic Spin Dipole Couplings in Principal Axis System
 ---------------------------------------------------------------------------------

       Atom             a.u.   MegaHertz   Gauss  10(-4) cm-1        Axes

              Baa    -0.1019   -13.680    -4.881    -4.563  0.8336  0.4759  0.2804
     1 C(13)  Bbb    -0.0957   -12.848    -4.585    -4.286 -0.4089  0.8730 -0.2660
              Bcc     0.1977    26.528     9.466     8.849 -0.3714  0.1071  0.9223
 
              Baa    -0.0036    -0.478    -0.171    -0.160  0.0593  0.9918  0.1131
     2 C(13)  Bbb    -0.0021    -0.281    -0.100    -0.094 -0.4423 -0.0754  0.8937
              Bcc     0.0057     0.759     0.271     0.253  0.8949 -0.1030  0.4342
 
              Baa    -0.0222    -2.973    -1.061    -0.992  0.6799 -0.4720  0.5612
     3 C(13)  Bbb     0.0073     0.975     0.348     0.325 -0.5846  0.1131  0.8034
              Bcc     0.0149     1.997     0.713     0.666  0.4427  0.8743  0.1990
 
              Baa    -0.7382    53.415    19.060    17.817  0.5631  0.8156  0.1331
     4 O(17)  Bbb    -0.7204    52.126    18.600    17.387  0.7315 -0.5669  0.3788
              Bcc     1.4586  -105.541   -37.660   -35.205 -0.3844  0.1160  0.9159
 
              Baa    -0.0864   -11.591    -4.136    -3.866 -0.5750  0.7642 -0.2924
     5 C(13)  Bbb    -0.0813   -10.909    -3.893    -3.639  0.7400  0.6381  0.2125
              Bcc     0.1677    22.501     8.029     7.505 -0.3490  0.0942  0.9324
 
              Baa    -0.0315     2.276     0.812     0.759  0.8483  0.0292  0.5288
     6 O(17)  Bbb    -0.0085     0.615     0.219     0.205 -0.1276  0.9803  0.1506
              Bcc     0.0400    -2.891    -1.032    -0.964 -0.5140 -0.1953  0.8353
 
              Baa    -0.0485    -6.512    -2.324    -2.172 -0.3702  0.1705  0.9132
     7 C(13)  Bbb     0.0185     2.479     0.885     0.827  0.9161 -0.0960  0.3893
              Bcc     0.0301     4.033     1.439     1.345  0.1541  0.9807 -0.1206
 
              Baa    -0.0085     0.617     0.220     0.206  0.7607  0.3545 -0.5437
     8 O(17)  Bbb    -0.0011     0.081     0.029     0.027  0.3577  0.4700  0.8069
              Bcc     0.0096    -0.698    -0.249    -0.233 -0.5416  0.8083 -0.2308
 
              Baa    -0.0858   -11.518    -4.110    -3.842  0.8155 -0.4251  0.3928
     9 C(13)  Bbb    -0.0608    -8.156    -2.910    -2.720  0.4154  0.9024  0.1142
              Bcc     0.1466    19.674     7.020     6.562 -0.4030  0.0700  0.9125
 
              Baa    -0.7027    50.848    18.144    16.961  0.4044  0.9070  0.1173
    10 O(17)  Bbb    -0.6574    47.566    16.973    15.866  0.8215 -0.4167  0.3893
              Bcc     1.3601   -98.414   -35.117   -32.827 -0.4019  0.0610  0.9136
 
              Baa    -0.0574    -7.706    -2.750    -2.571 -0.3294  0.0305  0.9437
    11 C(13)  Bbb     0.0244     3.275     1.169     1.093 -0.6173  0.7493 -0.2397
              Bcc     0.0330     4.431     1.581     1.478  0.7144  0.6615  0.2280
 
              Baa    -0.0050    -0.671    -0.239    -0.224 -0.3763  0.1136  0.9195
    12 C(13)  Bbb    -0.0013    -0.178    -0.064    -0.060  0.4426  0.8939  0.0707
              Bcc     0.0063     0.849     0.303     0.283  0.8140 -0.4336  0.3867
 
              Baa    -0.0035    -1.858    -0.663    -0.620 -0.2858 -0.0507  0.9569
    13 H(1)   Bbb    -0.0015    -0.801    -0.286    -0.267  0.5460  0.8121  0.2061
              Bcc     0.0050     2.659     0.949     0.887  0.7875 -0.5813  0.2045
 
              Baa    -0.0050    -2.669    -0.952    -0.890 -0.5572 -0.0084  0.8303
    14 H(1)   Bbb    -0.0034    -1.809    -0.646    -0.603  0.5689  0.7245  0.3891
              Bcc     0.0084     4.479     1.598     1.494 -0.6049  0.6892 -0.3989
 
              Baa    -0.0029    -1.543    -0.551    -0.515 -0.2854  0.4252  0.8589
    15 H(1)   Bbb    -0.0016    -0.867    -0.309    -0.289  0.6357  0.7547 -0.1624
              Bcc     0.0045     2.410     0.860     0.804  0.7173 -0.4996  0.4857
 
              Baa    -0.0046    -0.623    -0.222    -0.208  0.7727  0.1724 -0.6109
    16 C(13)  Bbb    -0.0027    -0.360    -0.129    -0.120 -0.2806  0.9561 -0.0851
              Bcc     0.0073     0.983     0.351     0.328  0.5694  0.2371  0.7871
 
              Baa    -0.0055    -2.946    -1.051    -0.983  0.7647 -0.1792 -0.6189
    17 H(1)   Bbb    -0.0029    -1.553    -0.554    -0.518  0.2067  0.9780 -0.0277
              Bcc     0.0084     4.499     1.605     1.501  0.6103 -0.1067  0.7850
 
              Baa    -0.0023    -1.233    -0.440    -0.411  0.6656 -0.5823 -0.4668
    18 H(1)   Bbb    -0.0021    -1.101    -0.393    -0.367  0.6176  0.7809 -0.0935
              Bcc     0.0044     2.334     0.833     0.779  0.4190 -0.2260  0.8794
 
              Baa    -0.0018    -0.940    -0.336    -0.314 -0.5752  0.1230  0.8087
    19 H(1)   Bbb    -0.0013    -0.706    -0.252    -0.235  0.1818  0.9831 -0.0202
              Bcc     0.0031     1.646     0.587     0.549  0.7976 -0.1354  0.5878
 
              Baa    -0.0041    -0.548    -0.195    -0.183  0.2499  0.5842  0.7722
    20 C(13)  Bbb     0.0003     0.042     0.015     0.014  0.4271  0.6492 -0.6294
              Bcc     0.0038     0.506     0.180     0.169  0.8690 -0.4871  0.0873
 
              Baa    -0.0021    -1.140    -0.407    -0.380 -0.0771 -0.2401  0.9677
    21 H(1)   Bbb    -0.0003    -0.186    -0.066    -0.062  0.5472  0.8011  0.2424
              Bcc     0.0025     1.326     0.473     0.442  0.8334 -0.5482 -0.0697
 
              Baa    -0.0012    -0.652    -0.233    -0.217 -0.1545 -0.0380  0.9873
    22 H(1)   Bbb    -0.0007    -0.390    -0.139    -0.130  0.5941  0.7948  0.1236
              Bcc     0.0020     1.042     0.372     0.347  0.7894 -0.6057  0.1002
 
              Baa    -0.0048    -2.569    -0.917    -0.857  0.3197  0.0931  0.9429
    23 H(1)   Bbb    -0.0025    -1.359    -0.485    -0.453  0.5322  0.8057 -0.2600
              Bcc     0.0074     3.927     1.401     1.310  0.7839 -0.5850 -0.2080
 
              Baa    -0.0017    -0.910    -0.325    -0.304 -0.4862  0.2232  0.8448
    24 H(1)   Bbb    -0.0002    -0.082    -0.029    -0.027  0.4367  0.8995  0.0137
              Bcc     0.0019     0.992     0.354     0.331  0.7569 -0.3756  0.5348
 
              Baa    -0.0044    -2.332    -0.832    -0.778 -0.4991  0.0808  0.8628
    25 H(1)   Bbb    -0.0029    -1.567    -0.559    -0.523  0.3755  0.9175  0.1313
              Bcc     0.0073     3.899     1.391     1.300  0.7810 -0.3895  0.4882
 
              Baa    -0.0167    -2.247    -0.802    -0.749 -0.6305 -0.2760  0.7255
    26 C(13)  Bbb    -0.0116    -1.551    -0.554    -0.517 -0.1004  0.9558  0.2764
              Bcc     0.0283     3.798     1.355     1.267  0.7697 -0.1014  0.6303
 
              Baa    -0.0027    -1.437    -0.513    -0.479 -0.2572 -0.2886  0.9223
    27 H(1)   Bbb     0.0004     0.239     0.085     0.080  0.6902  0.6131  0.3843
              Bcc     0.0022     1.198     0.427     0.399 -0.6764  0.7354  0.0415
 
              Baa    -0.0021    -0.276    -0.099    -0.092  0.1270  0.1240  0.9841
    28 C(13)  Bbb    -0.0012    -0.166    -0.059    -0.055 -0.1536  0.9826 -0.1040
              Bcc     0.0033     0.442     0.158     0.147  0.9799  0.1380 -0.1438
 
              Baa    -0.0273    -3.667    -1.308    -1.223  0.6717 -0.0668  0.7378
    29 C(13)  Bbb     0.0126     1.697     0.605     0.566  0.0747  0.9970  0.0222
              Bcc     0.0147     1.970     0.703     0.657  0.7371 -0.0402 -0.6746
 
              Baa    -0.0012    -0.642    -0.229    -0.214 -0.1274  0.9057  0.4043
    30 H(1)   Bbb    -0.0009    -0.467    -0.167    -0.156  0.0713 -0.3982  0.9145
              Bcc     0.0021     1.109     0.396     0.370  0.9893  0.1453 -0.0139
 
              Baa    -0.0049    -2.631    -0.939    -0.878  0.0621  0.1137  0.9916
    31 H(1)   Bbb    -0.0046    -2.432    -0.868    -0.811 -0.1133  0.9879 -0.1062
              Bcc     0.0095     5.063     1.807     1.689  0.9916  0.1058 -0.0742
 
              Baa    -0.0008    -0.104    -0.037    -0.035  0.1840  0.8977  0.4002
    32 C(13)  Bbb    -0.0006    -0.081    -0.029    -0.027  0.3390 -0.4402  0.8315
              Bcc     0.0014     0.185     0.066     0.062  0.9226 -0.0173 -0.3853
 
              Baa    -0.0006    -0.342    -0.122    -0.114  0.3417  0.3990  0.8509
    33 H(1)   Bbb    -0.0004    -0.236    -0.084    -0.079 -0.0869  0.9149 -0.3942
              Bcc     0.0011     0.578     0.206     0.193  0.9358 -0.0608 -0.3473
 
              Baa    -0.0004    -0.222    -0.079    -0.074  0.1052 -0.0534  0.9930
    34 H(1)   Bbb    -0.0003    -0.134    -0.048    -0.045 -0.1055  0.9923  0.0646
              Bcc     0.0007     0.356     0.127     0.119  0.9888  0.1116 -0.0988
 
              Baa    -0.0006    -0.320    -0.114    -0.107  0.3978  0.2656  0.8782
    35 H(1)   Bbb    -0.0003    -0.178    -0.063    -0.059 -0.1329  0.9638 -0.2313
              Bcc     0.0009     0.498     0.178     0.166  0.9078  0.0247 -0.4187
 
              Baa    -0.0015    -0.821    -0.293    -0.274 -0.3218  0.9107 -0.2590
    36 H(1)   Bbb    -0.0011    -0.599    -0.214    -0.200  0.3479  0.3682  0.8622
              Bcc     0.0027     1.420     0.507     0.474  0.8806  0.1874 -0.4353
 
              Baa    -0.0017    -0.915    -0.326    -0.305 -0.0866 -0.2756  0.9574
    37 H(1)   Bbb    -0.0013    -0.678    -0.242    -0.226  0.5056  0.8158  0.2806
              Bcc     0.0030     1.593     0.568     0.531  0.8584 -0.5084 -0.0687
 
              Baa    -0.0011     0.079     0.028     0.026 -0.0200 -0.3860  0.9223
    38 O(17)  Bbb    -0.0008     0.060     0.021     0.020  0.5498  0.7662  0.3326
              Bcc     0.0019    -0.139    -0.050    -0.046  0.8350 -0.5137 -0.1969
 
              Baa    -0.0009    -0.506    -0.181    -0.169  0.1779 -0.2945  0.9390
    39 H(1)   Bbb    -0.0007    -0.369    -0.132    -0.123  0.4506  0.8727  0.1883
              Bcc     0.0016     0.875     0.312     0.292  0.8748 -0.3896 -0.2879
 

 ---------------------------------------------------------------------------------

 Unable to Open any file for archive entry.
 1\1\GINC-P08R01N33\FOpt\UHF\6-31G(d)\C14H20O5(1-,2)\JL3566\26-Oct-2021
 \1\\# HF/6-31G* Opt=(Z-matrix,MaxCycles=100) Geom=PrintInputOrient\\<q
 mtool> simtype="Geometry optimization" </qmtool> Q1H-ACC-O3\\-1,2\C,0,
 -0.2269999981,-1.5310000181,-0.6560000181\C,0,0.2840000093,-2.91199994
 09,-0.9819999933\C,0,-1.6100000143,-1.4620000124,-0.1850000024\O,0,-2.
 3350000381,-2.4830000401,-0.0659999996\C,0,-2.1180000305,-0.1299999952
 ,0.1280000061\O,0,-3.4419999123,0.0240000002,0.5090000033\C,0,-1.32799
 99495,0.9879999757,0.0089999996\O,0,-1.8309999704,2.2200000286,0.38800
 00114\C,0,0.0309999995,0.9350000024,-0.4970000088\O,0,0.7220000029,2.0
 050001144,-0.6690000296\C,0,0.5389999747,-0.3939999938,-0.7929999828\C
 ,0,1.9720000029,-0.4300000072,-1.2539999485\H,0,1.0260000229,-3.260999
 918,-0.2540000081\H,0,-0.5630000234,-3.6010000706,-0.9589999914\H,0,0.
 7549999952,-2.9479999542,-1.9700000286\C,0,-3.7509999275,-0.6349999905
 ,1.7410000563\H,0,-3.5380001068,-1.7020000219,1.6699999571\H,0,-3.1830
 000877,-0.1840000004,2.5659999847\H,0,-4.8179998398,-0.4679999948,1.90
 90000391\C,0,-2.132999897,3.0239999294,-0.75\H,0,-2.9059998989,2.54600
 00038,-1.3650000095\H,0,-2.5150001049,3.9719998837,-0.3610000014\H,0,-
 1.2300000191,3.2000000477,-1.3400000334\H,0,2.1019999981,-1.1749999523
 ,-2.0529999733\H,0,2.2119998932,0.5500000119,-1.6720000505\C,0,2.88899
 9939,-0.7829999924,-0.1150000021\H,0,2.8800001144,-1.8339999914,0.1790
 000051\C,0,3.7630000114,1.5349999666,0.3269999921\C,0,3.6710000038,0.0
 529999994,0.5820000172\H,0,4.6760001183,1.7840000391,-0.2329999954\H,0
 ,2.8849999905,1.9040000439,-0.2070000023\C,0,4.5430002213,-0.460999995
 5,1.6979999542\H,0,4.4499998093,-1.5460000038,1.8140000105\H,0,5.59899
 99771,-0.2240000069,1.5119999647\H,0,4.2769999504,0.0109999999,2.65300
 01163\H,0,3.8210000992,2.0710000992,1.2819999456\H,6,rAH,5,123.47,16,1
 80.,0\X,37,1.,6,90.,5,0.,0\O,37,0.9572,38,90.,6,180.,0\H,39,0.9572,37,
 104.52,38,dih,0\\rAH=1.96843692\dih=57.71593684\\Version=ES64L-G16RevC
 .01\State=2-A\HF=-916.0569732\S2=0.863691\S2-1=0.\S2A=0.756764\RMSD=8.
 561e-09\RMSF=8.792e-03\Dipole=1.2934819,-0.7390283,0.0159311\Quadrupol
 e=-14.6377187,-3.9280455,18.5657642,-0.1219719,0.9280758,-1.1558758\PG
 =C01 [X(C14H20O5)]\\@
 The archive entry for this job was punched.


 IF YOU GET CONFUSED, LOGIC OUT YOUR DILEMMA

           --  PICKER X-RAY CORP.    DIGITAL PRINTER MANUAL CA. 1964
 Job cpu time:       0 days  0 hours 54 minutes 49.5 seconds.
 Elapsed time:       0 days  0 hours 13 minutes 48.4 seconds.
 File lengths (MBytes):  RWF=    176 Int=      0 D2E=      0 Chk=     16 Scr=      8
 Normal termination of Gaussian 16 at Tue Oct 26 23:17:28 2021.
