 Entering Gaussian System, Link 0=g16
 Initial command:
 /gpfs/loomis/apps/avx/software/Gaussian/16-C.01_AVX/g16/l1.exe "/home/jl3566/scratch60/g16/Gau-8256.inp" -scrdir="/home/jl3566/scratch60/g16/"
 Entering Link 1 = /gpfs/loomis/apps/avx/software/Gaussian/16-C.01_AVX/g16/l1.exe PID=      8257.
  
 Copyright (c) 1988-2019, Gaussian, Inc.  All Rights Reserved.
  
 This is part of the Gaussian(R) 16 program.  It is based on
 the Gaussian(R) 09 system (copyright 2009, Gaussian, Inc.),
 the Gaussian(R) 03 system (copyright 2003, Gaussian, Inc.),
 the Gaussian(R) 98 system (copyright 1998, Gaussian, Inc.),
 the Gaussian(R) 94 system (copyright 1995, Gaussian, Inc.),
 the Gaussian 92(TM) system (copyright 1992, Gaussian, Inc.),
 the Gaussian 90(TM) system (copyright 1990, Gaussian, Inc.),
 the Gaussian 88(TM) system (copyright 1988, Gaussian, Inc.),
 the Gaussian 86(TM) system (copyright 1986, Carnegie Mellon
 University), and the Gaussian 82(TM) system (copyright 1983,
 Carnegie Mellon University). Gaussian is a federally registered
 trademark of Gaussian, Inc.
  
 This software contains proprietary and confidential information,
 including trade secrets, belonging to Gaussian, Inc.
  
 This software is provided under written license and may be
 used, copied, transmitted, or stored only in accord with that
 written license.
  
 The following legend is applicable only to US Government
 contracts under FAR:
  
                    RESTRICTED RIGHTS LEGEND
  
 Use, reproduction and disclosure by the US Government is
 subject to restrictions as set forth in subparagraphs (a)
 and (c) of the Commercial Computer Software - Restricted
 Rights clause in FAR 52.227-19.
  
 Gaussian, Inc.
 340 Quinnipiac St., Bldg. 40, Wallingford CT 06492
  
  
 ---------------------------------------------------------------
 Warning -- This program may not be used in any manner that
 competes with the business of Gaussian, Inc. or will provide
 assistance to any competitor of Gaussian, Inc.  The licensee
 of this program is prohibited from giving any competitor of
 Gaussian, Inc. access to this program.  By using this program,
 the user acknowledges that Gaussian, Inc. is engaged in the
 business of creating and licensing software in the field of
 computational chemistry and represents and warrants to the
 licensee that it is not a competitor of Gaussian, Inc. and that
 it will not use this program in any manner prohibited above.
 ---------------------------------------------------------------
  

 Cite this work as:
 Gaussian 16, Revision C.01,
 M. J. Frisch, G. W. Trucks, H. B. Schlegel, G. E. Scuseria, 
 M. A. Robb, J. R. Cheeseman, G. Scalmani, V. Barone, 
 G. A. Petersson, H. Nakatsuji, X. Li, M. Caricato, A. V. Marenich, 
 J. Bloino, B. G. Janesko, R. Gomperts, B. Mennucci, H. P. Hratchian, 
 J. V. Ortiz, A. F. Izmaylov, J. L. Sonnenberg, D. Williams-Young, 
 F. Ding, F. Lipparini, F. Egidi, J. Goings, B. Peng, A. Petrone, 
 T. Henderson, D. Ranasinghe, V. G. Zakrzewski, J. Gao, N. Rega, 
 G. Zheng, W. Liang, M. Hada, M. Ehara, K. Toyota, R. Fukuda, 
 J. Hasegawa, M. Ishida, T. Nakajima, Y. Honda, O. Kitao, H. Nakai, 
 T. Vreven, K. Throssell, J. A. Montgomery, Jr., J. E. Peralta, 
 F. Ogliaro, M. J. Bearpark, J. J. Heyd, E. N. Brothers, K. N. Kudin, 
 V. N. Staroverov, T. A. Keith, R. Kobayashi, J. Normand, 
 K. Raghavachari, A. P. Rendell, J. C. Burant, S. S. Iyengar, 
 J. Tomasi, M. Cossi, J. M. Millam, M. Klene, C. Adamo, R. Cammi, 
 J. W. Ochterski, R. L. Martin, K. Morokuma, O. Farkas, 
 J. B. Foresman, and D. J. Fox, Gaussian, Inc., Wallingford CT, 2019.
 
 ******************************************
 Gaussian 16:  ES64L-G16RevC.01  3-Jul-2019
                26-Oct-2021 
 ******************************************
 %chk=Q1H-sp-HF.chk
 %nproc=4
 Will use up to    4 processors via shared memory.
 %mem=4GB
 ---------------------
 # HF/6-31G* SCF=Tight
 ---------------------
 1/38=1,172=1/1;
 2/12=2,17=6,18=5,40=1/2;
 3/5=1,6=6,7=1,11=9,25=1,30=1/1,2,3;
 4//1;
 5/5=2,32=2,38=5/2;
 6/7=2,8=2,9=2,10=2,28=1/1;
 99/5=1,9=1/99;
 ---------------------------------------------------------------
 <qmtool> simtype="Single point calculation" </qmtool> Q1H-sp-HF
 ---------------------------------------------------------------
 Symbolic Z-matrix:
 Charge = -1 Multiplicity = 2
 C1                   -0.227    -1.531    -0.656 
 C2                    0.284    -2.912    -0.982 
 C3                   -1.61     -1.462    -0.185 
 O4                   -2.335    -2.483    -0.066 
 C5                   -2.118    -0.13      0.128 
 O6                   -3.442     0.024     0.509 
 C7                   -1.328     0.988     0.009 
 O8                   -1.831     2.22      0.388 
 C9                    0.031     0.935    -0.497 
 O10                   0.722     2.005    -0.669 
 C11                   0.539    -0.394    -0.793 
 C12                   1.972    -0.43     -1.254 
 H13                   1.026    -3.261    -0.254 
 H14                  -0.563    -3.601    -0.959 
 H15                   0.755    -2.948    -1.97 
 C16                  -3.751    -0.635     1.741 
 H17                  -3.538    -1.702     1.67 
 H18                  -3.183    -0.184     2.566 
 H19                  -4.818    -0.468     1.909 
 C20                  -2.133     3.024    -0.75 
 H21                  -2.906     2.546    -1.365 
 H22                  -2.515     3.972    -0.361 
 H23                  -1.23      3.2      -1.34 
 H24                   2.102    -1.175    -2.053 
 H25                   2.212     0.55     -1.672 
 C26                   2.889    -0.783    -0.115 
 H27                   2.88     -1.834     0.179 
 C28                   3.763     1.535     0.327 
 C29                   3.671     0.053     0.582 
 H30                   4.676     1.784    -0.233 
 H31                   2.885     1.904    -0.207 
 C32                   4.543    -0.461     1.698 
 H33                   4.45     -1.546     1.814 
 H34                   5.599    -0.224     1.512 
 H35                   4.277     0.011     2.653 
 H36                   3.821     2.071     1.282 
 
                          Input orientation:                          
 ---------------------------------------------------------------------
 Center     Atomic      Atomic             Coordinates (Angstroms)
 Number     Number       Type             X           Y           Z
 ---------------------------------------------------------------------
      1          6           0       -0.227000   -1.531000   -0.656000
      2          6           0        0.284000   -2.912000   -0.982000
      3          6           0       -1.610000   -1.462000   -0.185000
      4          8           0       -2.335000   -2.483000   -0.066000
      5          6           0       -2.118000   -0.130000    0.128000
      6          8           0       -3.442000    0.024000    0.509000
      7          6           0       -1.328000    0.988000    0.009000
      8          8           0       -1.831000    2.220000    0.388000
      9          6           0        0.031000    0.935000   -0.497000
     10          8           0        0.722000    2.005000   -0.669000
     11          6           0        0.539000   -0.394000   -0.793000
     12          6           0        1.972000   -0.430000   -1.254000
     13          1           0        1.026000   -3.261000   -0.254000
     14          1           0       -0.563000   -3.601000   -0.959000
     15          1           0        0.755000   -2.948000   -1.970000
     16          6           0       -3.751000   -0.635000    1.741000
     17          1           0       -3.538000   -1.702000    1.670000
     18          1           0       -3.183000   -0.184000    2.566000
     19          1           0       -4.818000   -0.468000    1.909000
     20          6           0       -2.133000    3.024000   -0.750000
     21          1           0       -2.906000    2.546000   -1.365000
     22          1           0       -2.515000    3.972000   -0.361000
     23          1           0       -1.230000    3.200000   -1.340000
     24          1           0        2.102000   -1.175000   -2.053000
     25          1           0        2.212000    0.550000   -1.672000
     26          6           0        2.889000   -0.783000   -0.115000
     27          1           0        2.880000   -1.834000    0.179000
     28          6           0        3.763000    1.535000    0.327000
     29          6           0        3.671000    0.053000    0.582000
     30          1           0        4.676000    1.784000   -0.233000
     31          1           0        2.885000    1.904000   -0.207000
     32          6           0        4.543000   -0.461000    1.698000
     33          1           0        4.450000   -1.546000    1.814000
     34          1           0        5.599000   -0.224000    1.512000
     35          1           0        4.277000    0.011000    2.653000
     36          1           0        3.821000    2.071000    1.282000
 ---------------------------------------------------------------------
                    Distance matrix (angstroms):
                    1          2          3          4          5
     1  C    0.000000
     2  C    1.508164   0.000000
     3  C    1.462632   2.514944   0.000000
     4  O    2.387063   2.807536   1.257866   0.000000
     5  C    2.480592   3.839431   1.459540   2.370935   0.000000
     6  O    3.756524   4.972550   2.458873   2.800201   1.386309
     7  C    2.828389   4.334815   2.473795   3.614902   1.374112
     8  O    4.211028   5.717303   3.732867   4.751667   2.381695
     9  C    2.484552   3.885697   2.921615   4.179287   2.478518
    10  O    3.661157   4.946383   4.206254   5.463607   3.641296
    11  C    1.377786   2.537926   2.475579   3.626614   2.824462
    12  C    2.530890   3.013910   3.877952   4.916951   4.327589
    13  H    2.173594   1.096517   3.192124   3.454989   4.453518
    14  H    2.118869   1.092089   2.504118   2.277577   3.955684
    15  H    2.167674   1.095117   3.314762   3.659172   4.538376
    16  C    4.355112   5.374075   2.996212   2.947102   2.350209
    17  H    4.049968   4.806754   2.686226   2.251858   2.620181
    18  H    4.575328   5.661305   3.416960   3.596099   2.661012
    19  H    5.365303   6.353064   3.957794   3.758476   3.252108
    20  C    4.938593   6.413408   4.551588   5.552991   3.273962
    21  H    4.929670   6.333447   4.374481   5.225350   3.164012
    22  H    5.966991   7.457177   5.511656   6.464244   4.150076
    23  H    4.884284   6.306893   4.817953   5.927950   3.745994
    24  H    2.739085   2.733008   4.165422   5.034481   4.863865
    25  H    3.363263   4.022279   4.568041   5.696800   4.738280
    26  C    3.249868   3.474242   4.550488   5.493867   5.055245
    27  H    3.231483   3.041253   4.520064   5.260936   5.280741
    28  C    5.127060   5.795924   6.173596   7.313301   6.115389
    29  C    4.385898   4.765406   5.547294   6.551583   5.809658
    30  H    5.933596   6.473259   7.074787   8.209099   7.067684
    31  H    4.656755   5.528081   5.615645   6.820121   5.411043
    32  C    5.425783   5.597221   6.512074   7.382890   6.851524
    33  H    5.289183   5.199916   6.381744   7.102717   6.927213
    34  H    6.352224   6.457136   7.508804   8.398900   7.840688
    35  H    5.797694   6.140131   6.699309   7.571759   6.876884
    36  H    5.754698   6.516621   6.643037   7.775111   6.438000
                    6          7          8          9         10
     6  O    0.000000
     7  C    2.376614   0.000000
     8  O    2.726239   1.383645   0.000000
     9  C    3.728765   1.451112   2.429299   0.000000
    10  O    4.759300   2.386729   2.771513   1.285288   0.000000
    11  C    4.209310   2.457400   3.720841   1.453245   2.409163
    12  C    5.711889   3.807347   4.917466   2.490734   2.798920
    13  H    5.597894   4.864616   6.214175   4.319200   5.291068
    14  H    4.856366   4.751965   6.107886   4.597997   5.758695
    15  H    5.709031   4.873133   6.241457   4.215637   5.121123
    16  C    1.430939   3.391885   3.697030   4.666591   5.725856
    17  H    2.082358   3.857346   4.465362   4.938362   6.112313
    18  H    2.083649   3.369400   3.514371   4.578638   5.523221
    19  H    2.023719   4.232025   4.296621   5.591963   6.591920
    20  C    3.506931   2.317197   1.425715   3.018414   3.032482
    21  H    3.187422   2.608702   2.082045   3.460450   3.733561
    22  H    4.147642   3.232665   2.024441   3.965348   3.800279
    23  H    4.289373   2.592749   2.075472   2.725985   2.385072
    24  H    6.223936   4.549210   5.740470   3.340999   3.732594
    25  H    6.082857   3.943248   4.835116   2.507112   2.311522
    26  C    6.412658   4.575468   5.616887   3.356428   3.574318
    27  H    6.597632   5.069502   6.218691   4.030030   4.484862
    28  C    7.363985   5.130167   5.636114   3.868695   3.234285
    29  C    7.113434   5.117866   5.916547   3.897661   3.751254
    30  H    8.339670   6.061369   6.551091   4.729326   3.984100
    31  H    6.639125   4.316837   4.763878   3.027933   2.214094
    32  C    8.087594   6.278612   7.037879   5.208165   5.126781
    33  H    8.151784   6.562352   7.461045   5.569887   5.716019
    34  H    9.099846   7.191056   7.901988   6.031748   5.788811
    35  H    8.011234   6.273858   6.878777   5.367010   5.258303
    36  H    7.585440   5.413467   5.724207   4.338138   3.662589
                   11         12         13         14         15
    11  C    0.000000
    12  C    1.505758   0.000000
    13  H    2.957597   3.147932   0.000000
    14  H    3.395116   4.070441   1.771312   0.000000
    15  H    2.820443   2.886879   1.765238   1.784840   0.000000
    16  C    4.988320   6.462567   5.804794   5.123524   6.278975
    17  H    4.939551   6.366150   5.192529   4.400962   5.764717
    18  H    5.017994   6.420821   5.927564   5.564703   6.612325
    19  H    6.000311   7.490668   6.828745   6.012166   7.228787
    20  C    4.338681   5.388428   7.051703   6.811696   6.744904
    21  H    4.564954   5.715224   7.100436   6.590910   6.629704
    22  H    5.345605   6.348876   8.053969   7.843356   7.821009
    23  H    4.042945   4.841188   6.929174   6.844242   6.491150
    24  H    2.154189   1.100148   2.957291   3.766237   2.228189
    25  H    2.112512   1.092119   4.235687   5.043788   3.801007
    26  C    2.476591   1.504267   3.103317   4.535390   3.561208
    27  H    2.915247   2.202083   2.379314   4.033805   3.220997
    28  C    3.920410   3.093294   5.552508   6.837146   5.866989
    29  C    3.449617   2.547702   4.321749   5.801134   4.901200
    30  H    4.708721   3.640859   6.226955   7.548008   6.386175
    31  H    3.335853   2.716125   5.489564   6.539055   5.584530
    32  C    4.716099   3.914755   4.900979   6.556713   5.829952
    33  H    4.839367   4.098605   4.352198   6.086273   5.471497
    34  H    5.562870   4.565996   5.766667   7.448504   6.558112
    35  H    5.100155   4.557648   5.452122   7.036952   6.521679
    36  H    4.599280   4.013116   6.213014   7.510867   6.720582
                   16         17         18         19         20
    16  C    0.000000
    17  H    1.090366   0.000000
    18  H    1.098476   1.798100   0.000000
    19  H    1.092978   1.793956   1.784805   0.000000
    20  C    4.712885   5.492313   4.731767   5.145247   0.000000
    21  H    4.525486   5.258912   4.793995   4.843451   1.097378
    22  H    5.212538   6.112754   5.126976   5.492750   1.093595
    23  H    5.527678   6.198110   5.524717   6.073217   1.092925
    24  H    6.995973   6.778500   7.088615   8.005229   6.104476
    25  H    6.972099   7.021607   6.899668   7.954922   5.084268
    26  C    6.896103   6.733284   6.664514   7.974562   6.333795
    27  H    6.917196   6.590238   6.721625   8.007375   7.042256
    28  C    7.947861   8.098544   7.497666   8.952558   6.175748
    29  C    7.543388   7.498897   7.139310   8.607874   6.654884
    30  H    8.986800   9.123782   8.571541   9.989780   6.940272
    31  H    7.367341   7.601401   6.990701   8.333069   5.170065
    32  C    8.295937   8.175783   7.779539   9.363380   7.918769
    33  H    8.251766   7.990821   7.789945   9.330966   8.413969
    34  H    9.361830   9.257117   8.845114  10.427417   8.686194
    35  H    8.105421   8.060700   7.463055   9.137943   7.857905
    36  H    8.054086   8.278947   7.469250   9.026183   6.362967
                   21         22         23         24         25
    21  H    0.000000
    22  H    1.787281   0.000000
    23  H    1.799254   1.790433   0.000000
    24  H    6.276882   7.118368   5.545378   0.000000
    25  H    5.502017   5.981081   4.356614   1.769996   0.000000
    26  C    6.799027   7.202344   5.859273   2.128116   2.158580
    27  H    7.419308   7.944008   6.673876   2.453852   3.091259
    28  C    6.954175   6.769461   5.520975   3.970821   2.715111
    29  C    7.298136   7.383387   6.133310   3.303478   2.730606
    30  H    7.703817   7.517593   6.173438   4.323605   3.108822
    31  H    5.940438   5.784491   4.460553   3.674377   2.105343
    32  C    8.597187   8.585240   7.480635   4.531918   4.220496
    33  H    8.997846   9.148233   8.045783   4.539211   4.642635
    34  H    9.396013   9.324781   8.154319   5.083565   4.712611
    35  H    8.611971   8.420510   7.512711   5.318238   4.822901
    36  H    7.244637   6.816021   5.801907   4.961220   3.691672
                   26         27         28         29         30
    26  C    0.000000
    27  H    1.091384   0.000000
    28  C    2.516419   3.485937   0.000000
    29  C    1.340235   2.085392   1.506590   0.000000
    30  H    3.129981   4.060207   1.099623   2.161160   0.000000
    31  H    2.688578   3.757880   1.091880   2.160213   1.795204
    32  C    2.475150   2.637813   2.544024   1.506664   2.964199
    33  H    2.596138   2.284966   3.489369   2.163669   3.915378
    34  H    3.209939   3.429570   2.805210   2.158428   2.815851
    35  H    3.196687   3.387670   2.827905   2.158250   3.410532
    36  H    3.311427   4.165467   1.096670   2.141220   1.763128
                   31         32         33         34         35
    31  H    0.000000
    32  C    3.459944   0.000000
    33  H    4.293736   1.095139   0.000000
    34  H    3.853458   1.098135   1.777383   0.000000
    35  H    3.701448   1.097982   1.777104   1.762042   0.000000
    36  H    1.766665   2.665589   3.709630   2.912252   2.516183
                   36
    36  H    0.000000
 Stoichiometry    C14H18O4(1-,2)
 Framework group  C1[X(C14H18O4)]
 Deg. of freedom   102
 Full point group                 C1      NOp   1
 Largest Abelian subgroup         C1      NOp   1
 Largest concise Abelian subgroup C1      NOp   1
                         Standard orientation:                         
 ---------------------------------------------------------------------
 Center     Atomic      Atomic             Coordinates (Angstroms)
 Number     Number       Type             X           Y           Z
 ---------------------------------------------------------------------
      1          6           0       -0.226993   -1.531029   -0.655888
      2          6           0        0.283959   -2.912047   -0.981888
      3          6           0       -1.609991   -1.461982   -0.184888
      4          8           0       -2.335026   -2.482957   -0.065888
      5          6           0       -2.117945   -0.129964    0.128112
      6          8           0       -3.441939    0.024082    0.509112
      7          6           0       -1.327906    0.988009    0.009112
      8          8           0       -1.830864    2.220026    0.388112
      9          6           0        0.031092    0.934962   -0.496888
     10          8           0        0.722129    2.004938   -0.668888
     11          6           0        0.539046   -0.394056   -0.792888
     12          6           0        1.972045   -0.430105   -1.253888
     13          1           0        1.025947   -3.261073   -0.253888
     14          1           0       -0.563065   -3.601018   -0.958888
     15          1           0        0.754958   -2.948063   -1.969888
     16          6           0       -3.750962   -0.634908    1.741112
     17          1           0       -3.537999   -1.701915    1.670112
     18          1           0       -3.182947   -0.183927    2.566112
     19          1           0       -4.817956   -0.467871    1.909112
     20          6           0       -2.132836    3.024036   -0.749888
     21          1           0       -2.905852    2.546063   -1.364888
     22          1           0       -2.514803    3.972049   -0.360888
     23          1           0       -1.229830    3.200005   -1.339888
     24          1           0        2.102019   -1.175110   -2.052888
     25          1           0        2.212079    0.549886   -1.671888
     26          6           0        2.889033   -0.783137   -0.114888
     27          1           0        2.879996   -1.834137    0.179112
     28          6           0        3.763113    1.534833    0.327112
     29          6           0        3.671062    0.052836    0.582112
     30          1           0        4.676121    1.783801   -0.232888
     31          1           0        2.885125    1.903863   -0.206888
     32          6           0        4.543044   -0.461194    1.698112
     33          1           0        4.450006   -1.546191    1.814112
     34          1           0        5.599052   -0.224231    1.512112
     35          1           0        4.277060    0.010815    2.653112
     36          1           0        3.821131    2.070831    1.282112
 ---------------------------------------------------------------------
 Rotational constants (GHZ):           0.5940365           0.2834385           0.2236505
 Standard basis: 6-31G(d) (6D, 7F)
 There are   306 symmetry adapted cartesian basis functions of A   symmetry.
 There are   306 symmetry adapted basis functions of A   symmetry.
   306 basis functions,   576 primitive gaussians,   306 cartesian basis functions
    68 alpha electrons       67 beta electrons
       nuclear repulsion energy      1356.3464477625 Hartrees.
 NAtoms=   36 NActive=   36 NUniq=   36 SFac= 1.00D+00 NAtFMM=   60 NAOKFM=F Big=F
 Integral buffers will be    131072 words long.
 Raffenetti 2 integral format.
 Two-electron integral symmetry is turned on.
 One-electron integrals computed using PRISM.
 NBasis=   306 RedAO= T EigKep=  3.08D-04  NBF=   306
 NBsUse=   306 1.00D-06 EigRej= -1.00D+00 NBFU=   306
 ExpMin= 1.61D-01 ExpMax= 5.48D+03 ExpMxC= 8.25D+02 IAcc=3 IRadAn=         5 AccDes= 0.00D+00
 Harris functional with IExCor=  205 and IRadAn=       5 diagonalized for initial guess.
 HarFok:  IExCor=  205 AccDes= 0.00D+00 IRadAn=         5 IDoV= 1 UseB2=F ITyADJ=14
 ICtDFT=  3500011 ScaDFX=  1.000000  1.000000  1.000000  1.000000
 FoFCou: FMM=F IPFlag=           0 FMFlag=      100000 FMFlg1=           0
         NFxFlg=           0 DoJE=T BraDBF=F KetDBF=T FulRan=T
         wScrn=  0.000000 ICntrl=       500 IOpCl=  0 I1Cent=   200000004 NGrid=           0
         NMat0=    1 NMatS0=      1 NMatT0=    0 NMatD0=    1 NMtDS0=    0 NMtDT0=    0
 Petite list used in FoFCou.
 Initial guess <Sx>= 0.0000 <Sy>= 0.0000 <Sz>= 0.5000 <S**2>= 0.7500 S= 0.5000
 Requested convergence on RMS density matrix=1.00D-08 within 128 cycles.
 Requested convergence on MAX density matrix=1.00D-06.
 Requested convergence on             energy=1.00D-06.
 No special actions if energy rises.
 Integral accuracy reduced to 1.0D-05 until final iterations.
 Initial convergence to 1.0D-05 achieved.  Increase integral accuracy.
 Restarting incremental Fock formation.
 SCF Done:  E(UHF) =  -840.032367663     A.U. after   44 cycles
            NFock= 44  Conv=0.71D-08     -V/T= 2.0020
 <Sx>= 0.0000 <Sy>= 0.0000 <Sz>= 0.5000 <S**2>= 0.8901 S= 0.5677
 <L.S>=  0.00000000000    
 Annihilation of the first spin contaminant:
 S**2 before annihilation     0.8901,   after     0.7631

 **********************************************************************

            Population analysis using the SCF Density.

 **********************************************************************

 Orbital symmetries:
 Alpha Orbitals:
       Occupied  (A) (A) (A) (A) (A) (A) (A) (A) (A) (A) (A) (A)
                 (A) (A) (A) (A) (A) (A) (A) (A) (A) (A) (A) (A)
                 (A) (A) (A) (A) (A) (A) (A) (A) (A) (A) (A) (A)
                 (A) (A) (A) (A) (A) (A) (A) (A) (A) (A) (A) (A)
                 (A) (A) (A) (A) (A) (A) (A) (A) (A) (A) (A) (A)
                 (A) (A) (A) (A) (A) (A) (A) (A)
       Virtual   (A) (A) (A) (A) (A) (A) (A) (A) (A) (A) (A) (A)
                 (A) (A) (A) (A) (A) (A) (A) (A) (A) (A) (A) (A)
                 (A) (A) (A) (A) (A) (A) (A) (A) (A) (A) (A) (A)
                 (A) (A) (A) (A) (A) (A) (A) (A) (A) (A) (A) (A)
                 (A) (A) (A) (A) (A) (A) (A) (A) (A) (A) (A) (A)
                 (A) (A) (A) (A) (A) (A) (A) (A) (A) (A) (A) (A)
                 (A) (A) (A) (A) (A) (A) (A) (A) (A) (A) (A) (A)
                 (A) (A) (A) (A) (A) (A) (A) (A) (A) (A) (A) (A)
                 (A) (A) (A) (A) (A) (A) (A) (A) (A) (A) (A) (A)
                 (A) (A) (A) (A) (A) (A) (A) (A) (A) (A) (A) (A)
                 (A) (A) (A) (A) (A) (A) (A) (A) (A) (A) (A) (A)
                 (A) (A) (A) (A) (A) (A) (A) (A) (A) (A) (A) (A)
                 (A) (A) (A) (A) (A) (A) (A) (A) (A) (A) (A) (A)
                 (A) (A) (A) (A) (A) (A) (A) (A) (A) (A) (A) (A)
                 (A) (A) (A) (A) (A) (A) (A) (A) (A) (A) (A) (A)
                 (A) (A) (A) (A) (A) (A) (A) (A) (A) (A) (A) (A)
                 (A) (A) (A) (A) (A) (A) (A) (A) (A) (A) (A) (A)
                 (A) (A) (A) (A) (A) (A) (A) (A) (A) (A) (A) (A)
                 (A) (A) (A) (A) (A) (A) (A) (A) (A) (A) (A) (A)
                 (A) (A) (A) (A) (A) (A) (A) (A) (A) (A)
 Beta  Orbitals:
       Occupied  (A) (A) (A) (A) (A) (A) (A) (A) (A) (A) (A) (A)
                 (A) (A) (A) (A) (A) (A) (A) (A) (A) (A) (A) (A)
                 (A) (A) (A) (A) (A) (A) (A) (A) (A) (A) (A) (A)
                 (A) (A) (A) (A) (A) (A) (A) (A) (A) (A) (A) (A)
                 (A) (A) (A) (A) (A) (A) (A) (A) (A) (A) (A) (A)
                 (A) (A) (A) (A) (A) (A) (A)
       Virtual   (A) (A) (A) (A) (A) (A) (A) (A) (A) (A) (A) (A)
                 (A) (A) (A) (A) (A) (A) (A) (A) (A) (A) (A) (A)
                 (A) (A) (A) (A) (A) (A) (A) (A) (A) (A) (A) (A)
                 (A) (A) (A) (A) (A) (A) (A) (A) (A) (A) (A) (A)
                 (A) (A) (A) (A) (A) (A) (A) (A) (A) (A) (A) (A)
                 (A) (A) (A) (A) (A) (A) (A) (A) (A) (A) (A) (A)
                 (A) (A) (A) (A) (A) (A) (A) (A) (A) (A) (A) (A)
                 (A) (A) (A) (A) (A) (A) (A) (A) (A) (A) (A) (A)
                 (A) (A) (A) (A) (A) (A) (A) (A) (A) (A) (A) (A)
                 (A) (A) (A) (A) (A) (A) (A) (A) (A) (A) (A) (A)
                 (A) (A) (A) (A) (A) (A) (A) (A) (A) (A) (A) (A)
                 (A) (A) (A) (A) (A) (A) (A) (A) (A) (A) (A) (A)
                 (A) (A) (A) (A) (A) (A) (A) (A) (A) (A) (A) (A)
                 (A) (A) (A) (A) (A) (A) (A) (A) (A) (A) (A) (A)
                 (A) (A) (A) (A) (A) (A) (A) (A) (A) (A) (A) (A)
                 (A) (A) (A) (A) (A) (A) (A) (A) (A) (A) (A) (A)
                 (A) (A) (A) (A) (A) (A) (A) (A) (A) (A) (A) (A)
                 (A) (A) (A) (A) (A) (A) (A) (A) (A) (A) (A) (A)
                 (A) (A) (A) (A) (A) (A) (A) (A) (A) (A) (A) (A)
                 (A) (A) (A) (A) (A) (A) (A) (A) (A) (A) (A)
 The electronic state is 2-A.
 Alpha  occ. eigenvalues --  -20.43915 -20.43079 -20.39410 -20.35382 -11.14972
 Alpha  occ. eigenvalues --  -11.14716 -11.14098 -11.14090 -11.13212 -11.13014
 Alpha  occ. eigenvalues --  -11.12058 -11.11424 -11.10366 -11.09587 -11.09381
 Alpha  occ. eigenvalues --  -11.09315 -11.09228 -11.08552  -1.26018  -1.23730
 Alpha  occ. eigenvalues --   -1.21239  -1.16604  -0.99195  -0.96976  -0.90689
 Alpha  occ. eigenvalues --   -0.87755  -0.82723  -0.82107  -0.80992  -0.78637
 Alpha  occ. eigenvalues --   -0.75400  -0.73698  -0.63963  -0.63360  -0.58890
 Alpha  occ. eigenvalues --   -0.56881  -0.53559  -0.52422  -0.51203  -0.50647
 Alpha  occ. eigenvalues --   -0.49023  -0.48420  -0.48073  -0.47780  -0.47407
 Alpha  occ. eigenvalues --   -0.45792  -0.44841  -0.44325  -0.42800  -0.42278
 Alpha  occ. eigenvalues --   -0.41875  -0.40740  -0.40224  -0.39820  -0.39051
 Alpha  occ. eigenvalues --   -0.38637  -0.37628  -0.36997  -0.36085  -0.34528
 Alpha  occ. eigenvalues --   -0.32833  -0.30755  -0.27063  -0.26533  -0.24501
 Alpha  occ. eigenvalues --   -0.21342  -0.18129  -0.09801
 Alpha virt. eigenvalues --    0.27898   0.30843   0.33058   0.33979   0.35887
 Alpha virt. eigenvalues --    0.38231   0.39105   0.39590   0.40455   0.41390
 Alpha virt. eigenvalues --    0.42164   0.42720   0.43353   0.43937   0.44447
 Alpha virt. eigenvalues --    0.44727   0.45971   0.46787   0.47083   0.47189
 Alpha virt. eigenvalues --    0.48178   0.50927   0.51309   0.51711   0.53394
 Alpha virt. eigenvalues --    0.54577   0.56484   0.58059   0.59511   0.63198
 Alpha virt. eigenvalues --    0.64869   0.65171   0.68454   0.69941   0.72498
 Alpha virt. eigenvalues --    0.75071   0.75640   0.77042   0.81032   0.82992
 Alpha virt. eigenvalues --    0.83594   0.84570   0.86587   0.87402   0.88690
 Alpha virt. eigenvalues --    0.88960   0.89240   0.90143   0.90858   0.91772
 Alpha virt. eigenvalues --    0.92129   0.92887   0.94769   0.96294   0.96420
 Alpha virt. eigenvalues --    0.98002   0.99135   0.99558   1.02949   1.03645
 Alpha virt. eigenvalues --    1.05610   1.06736   1.07797   1.07934   1.08864
 Alpha virt. eigenvalues --    1.10425   1.10701   1.11708   1.12392   1.13639
 Alpha virt. eigenvalues --    1.14405   1.16192   1.17496   1.19032   1.19865
 Alpha virt. eigenvalues --    1.21252   1.23775   1.24157   1.24738   1.24947
 Alpha virt. eigenvalues --    1.25597   1.26240   1.27268   1.27703   1.28191
 Alpha virt. eigenvalues --    1.28281   1.29572   1.30833   1.31204   1.31473
 Alpha virt. eigenvalues --    1.32063   1.33902   1.34352   1.34598   1.35870
 Alpha virt. eigenvalues --    1.37603   1.38419   1.39711   1.41718   1.42173
 Alpha virt. eigenvalues --    1.42602   1.45682   1.48570   1.49506   1.50864
 Alpha virt. eigenvalues --    1.51689   1.52613   1.55026   1.56952   1.58473
 Alpha virt. eigenvalues --    1.58854   1.60515   1.62122   1.63554   1.65085
 Alpha virt. eigenvalues --    1.66206   1.67257   1.71576   1.73742   1.75464
 Alpha virt. eigenvalues --    1.77595   1.79639   1.80174   1.81151   1.83012
 Alpha virt. eigenvalues --    1.84461   1.85051   1.86967   1.87741   1.88964
 Alpha virt. eigenvalues --    1.90124   1.92516   1.94201   1.98949   2.02805
 Alpha virt. eigenvalues --    2.05816   2.09089   2.11879   2.14773   2.15291
 Alpha virt. eigenvalues --    2.17913   2.18768   2.20435   2.21144   2.23515
 Alpha virt. eigenvalues --    2.24501   2.26688   2.27490   2.28685   2.28725
 Alpha virt. eigenvalues --    2.31259   2.32675   2.33675   2.34164   2.35544
 Alpha virt. eigenvalues --    2.37353   2.39034   2.40107   2.42262   2.42450
 Alpha virt. eigenvalues --    2.45403   2.47138   2.48031   2.50690   2.51012
 Alpha virt. eigenvalues --    2.53172   2.54118   2.55254   2.55924   2.56839
 Alpha virt. eigenvalues --    2.59298   2.60872   2.61398   2.63284   2.66036
 Alpha virt. eigenvalues --    2.67363   2.68755   2.69011   2.70499   2.71703
 Alpha virt. eigenvalues --    2.73607   2.74593   2.74810   2.79103   2.81468
 Alpha virt. eigenvalues --    2.82770   2.83988   2.85711   2.86263   2.87501
 Alpha virt. eigenvalues --    2.88427   2.90771   2.93901   2.94857   2.95089
 Alpha virt. eigenvalues --    2.97740   3.00917   3.02647   3.05071   3.08305
 Alpha virt. eigenvalues --    3.09920   3.13312   3.13545   3.16736   3.17608
 Alpha virt. eigenvalues --    3.23518   3.26902   3.31407   3.32586   3.38083
 Alpha virt. eigenvalues --    3.42268   3.46952   3.47475   3.52216   3.54362
 Alpha virt. eigenvalues --    3.56208   3.58290   3.62426   3.86934   3.93977
 Alpha virt. eigenvalues --    4.39235   4.53952   4.62883   4.67939   4.74345
 Alpha virt. eigenvalues --    4.77128   4.78221   4.81099   4.82181   4.84005
 Alpha virt. eigenvalues --    4.91516   4.92771   4.98920   5.06391   5.12982
 Alpha virt. eigenvalues --    5.23006   5.37046   5.82186
  Beta  occ. eigenvalues --  -20.43899 -20.43077 -20.37557 -20.33902 -11.15227
  Beta  occ. eigenvalues --  -11.14692 -11.14123 -11.13568 -11.13393 -11.12833
  Beta  occ. eigenvalues --  -11.12048 -11.11515 -11.10293 -11.09367 -11.09322
  Beta  occ. eigenvalues --  -11.09305 -11.09037 -11.08834  -1.25783  -1.23494
  Beta  occ. eigenvalues --   -1.17454  -1.13385  -0.98838  -0.96245  -0.90444
  Beta  occ. eigenvalues --   -0.87143  -0.82511  -0.81701  -0.80980  -0.78229
  Beta  occ. eigenvalues --   -0.74238  -0.73030  -0.63429  -0.62651  -0.58869
  Beta  occ. eigenvalues --   -0.56756  -0.53217  -0.52153  -0.50968  -0.50100
  Beta  occ. eigenvalues --   -0.48886  -0.48265  -0.48079  -0.47653  -0.46994
  Beta  occ. eigenvalues --   -0.44962  -0.43984  -0.43269  -0.42547  -0.41835
  Beta  occ. eigenvalues --   -0.40875  -0.40023  -0.39319  -0.38778  -0.37603
  Beta  occ. eigenvalues --   -0.37491  -0.36215  -0.35049  -0.34334  -0.32014
  Beta  occ. eigenvalues --   -0.30638  -0.28882  -0.25075  -0.23402  -0.21340
  Beta  occ. eigenvalues --   -0.17589  -0.16438
  Beta virt. eigenvalues --    0.21453   0.29905   0.32672   0.34217   0.35852
  Beta virt. eigenvalues --    0.37992   0.38487   0.39272   0.40473   0.40957
  Beta virt. eigenvalues --    0.41609   0.42409   0.42825   0.43513   0.43930
  Beta virt. eigenvalues --    0.44469   0.44805   0.46042   0.46944   0.47310
  Beta virt. eigenvalues --    0.47379   0.48517   0.51214   0.51543   0.52224
  Beta virt. eigenvalues --    0.53898   0.54864   0.56862   0.58596   0.59991
  Beta virt. eigenvalues --    0.63899   0.65083   0.65595   0.69051   0.70118
  Beta virt. eigenvalues --    0.72629   0.75207   0.75959   0.77570   0.81231
  Beta virt. eigenvalues --    0.83184   0.83850   0.85048   0.86628   0.87549
  Beta virt. eigenvalues --    0.88757   0.89337   0.89538   0.90368   0.90947
  Beta virt. eigenvalues --    0.91880   0.92277   0.92997   0.95106   0.96392
  Beta virt. eigenvalues --    0.96589   0.98129   0.99272   0.99478   1.03337
  Beta virt. eigenvalues --    1.03930   1.05911   1.06893   1.07897   1.08088
  Beta virt. eigenvalues --    1.09151   1.10630   1.10827   1.12327   1.12514
  Beta virt. eigenvalues --    1.13771   1.14859   1.16619   1.18066   1.19037
  Beta virt. eigenvalues --    1.20034   1.21632   1.24000   1.24230   1.24792
  Beta virt. eigenvalues --    1.25084   1.25680   1.26490   1.27369   1.27838
  Beta virt. eigenvalues --    1.28293   1.28540   1.29859   1.31040   1.31303
  Beta virt. eigenvalues --    1.31516   1.32173   1.34290   1.34478   1.34780
  Beta virt. eigenvalues --    1.36045   1.37961   1.38593   1.40050   1.41834
  Beta virt. eigenvalues --    1.42529   1.42779   1.46447   1.49860   1.51498
  Beta virt. eigenvalues --    1.52067   1.53017   1.53964   1.55974   1.57575
  Beta virt. eigenvalues --    1.58941   1.59942   1.61245   1.62743   1.64180
  Beta virt. eigenvalues --    1.65976   1.67113   1.67517   1.71914   1.73916
  Beta virt. eigenvalues --    1.75477   1.77802   1.80420   1.81187   1.81961
  Beta virt. eigenvalues --    1.83382   1.84520   1.85211   1.87099   1.87998
  Beta virt. eigenvalues --    1.89668   1.90377   1.92630   1.94318   1.99119
  Beta virt. eigenvalues --    2.03189   2.06159   2.09352   2.12269   2.15007
  Beta virt. eigenvalues --    2.15734   2.18601   2.19192   2.20903   2.21520
  Beta virt. eigenvalues --    2.24140   2.25232   2.27089   2.27699   2.29184
  Beta virt. eigenvalues --    2.29914   2.31472   2.33427   2.34094   2.35386
  Beta virt. eigenvalues --    2.36341   2.37964   2.39452   2.40669   2.42415
  Beta virt. eigenvalues --    2.43003   2.45932   2.47572   2.48161   2.50994
  Beta virt. eigenvalues --    2.51912   2.53473   2.54360   2.55663   2.56251
  Beta virt. eigenvalues --    2.57655   2.59557   2.60975   2.61606   2.63491
  Beta virt. eigenvalues --    2.66422   2.67767   2.68771   2.69341   2.70682
  Beta virt. eigenvalues --    2.71967   2.73676   2.74954   2.75385   2.79291
  Beta virt. eigenvalues --    2.81695   2.82826   2.84200   2.85786   2.86542
  Beta virt. eigenvalues --    2.87588   2.88605   2.90890   2.94130   2.94923
  Beta virt. eigenvalues --    2.95313   2.97998   3.01457   3.02957   3.05427
  Beta virt. eigenvalues --    3.09487   3.10496   3.13633   3.14048   3.17100
  Beta virt. eigenvalues --    3.17786   3.23759   3.27266   3.31706   3.32991
  Beta virt. eigenvalues --    3.38103   3.42667   3.47191   3.47600   3.52471
  Beta virt. eigenvalues --    3.54715   3.56493   3.58620   3.62798   3.87029
  Beta virt. eigenvalues --    3.94060   4.39599   4.54565   4.63133   4.68005
  Beta virt. eigenvalues --    4.74706   4.77323   4.78197   4.81143   4.82267
  Beta virt. eigenvalues --    4.84001   4.91575   4.92958   4.98965   5.06767
  Beta virt. eigenvalues --    5.12987   5.23159   5.37530   5.82478
          Condensed to atoms (all electrons):
               1          2          3          4          5          6
     1  C    5.128258   0.311443   0.456434  -0.069276  -0.092867   0.003238
     2  C    0.311443   5.143325  -0.031536  -0.012937   0.004648  -0.000039
     3  C    0.456434  -0.031536   4.437173   0.453749   0.398560  -0.049011
     4  O   -0.069276  -0.012937   0.453749   8.342380  -0.072603  -0.000080
     5  C   -0.092867   0.004648   0.398560  -0.072603   4.955230   0.229491
     6  O    0.003238  -0.000039  -0.049011  -0.000080   0.229491   8.438030
     7  C   -0.008491  -0.000445  -0.043658   0.004236   0.477637  -0.060639
     8  O   -0.000059   0.000001   0.001983  -0.000010  -0.059174  -0.002538
     9  C   -0.032891   0.002157  -0.012293  -0.000055  -0.040542   0.001851
    10  O    0.003729  -0.000039  -0.000102  -0.000000   0.003887  -0.000008
    11  C    0.534705  -0.045603  -0.033838   0.003927  -0.010691  -0.000138
    12  C   -0.045824  -0.015154   0.002268  -0.000047  -0.000347   0.000001
    13  H   -0.039553   0.385244  -0.000974   0.000331  -0.000113   0.000000
    14  H   -0.042545   0.391120  -0.003105   0.015920   0.000765  -0.000006
    15  H   -0.044167   0.388812   0.000765   0.000294   0.000017   0.000000
    16  C   -0.000387  -0.000002  -0.004995  -0.010308  -0.046332   0.216600
    17  H   -0.000189   0.000014  -0.000005   0.010711  -0.006306  -0.034140
    18  H    0.000102  -0.000001   0.000370   0.000315  -0.001133  -0.040414
    19  H    0.000006  -0.000000  -0.000079   0.000235   0.004719  -0.036816
    20  C    0.000044  -0.000000  -0.000133   0.000001  -0.005937   0.000626
    21  H   -0.000023   0.000000  -0.000150   0.000000   0.002730   0.000584
    22  H   -0.000001   0.000000   0.000004  -0.000000  -0.000045  -0.000017
    23  H   -0.000009   0.000000   0.000037  -0.000000  -0.000005   0.000016
    24  H   -0.000045  -0.002213   0.000204  -0.000000  -0.000025  -0.000000
    25  H    0.002089   0.000091   0.000001   0.000000  -0.000048   0.000000
    26  C   -0.001213  -0.000587   0.000079   0.000001  -0.000029  -0.000000
    27  H   -0.000138  -0.000686  -0.000018   0.000000  -0.000000   0.000000
    28  C   -0.000005  -0.000001  -0.000001  -0.000000   0.000003  -0.000000
    29  C    0.000200   0.000022   0.000009   0.000000  -0.000005  -0.000000
    30  H    0.000000  -0.000000   0.000000   0.000000  -0.000000   0.000000
    31  H   -0.000010  -0.000001   0.000001  -0.000000  -0.000005   0.000000
    32  C   -0.000000   0.000001  -0.000000   0.000000   0.000000  -0.000000
    33  H    0.000001  -0.000002   0.000000   0.000000  -0.000000   0.000000
    34  H    0.000000  -0.000000   0.000000   0.000000  -0.000000  -0.000000
    35  H    0.000001   0.000000  -0.000000  -0.000000  -0.000000   0.000000
    36  H    0.000000   0.000000  -0.000000  -0.000000   0.000000   0.000000
               7          8          9         10         11         12
     1  C   -0.008491  -0.000059  -0.032891   0.003729   0.534705  -0.045824
     2  C   -0.000445   0.000001   0.002157  -0.000039  -0.045603  -0.015154
     3  C   -0.043658   0.001983  -0.012293  -0.000102  -0.033838   0.002268
     4  O    0.004236  -0.000010  -0.000055  -0.000000   0.003927  -0.000047
     5  C    0.477637  -0.059174  -0.040542   0.003887  -0.010691  -0.000347
     6  O   -0.060639  -0.002538   0.001851  -0.000008  -0.000138   0.000001
     7  C    4.975010   0.222712   0.402461  -0.075041  -0.096233   0.004489
     8  O    0.222712   8.435148  -0.049470  -0.000756   0.003787  -0.000052
     9  C    0.402461  -0.049470   4.457393   0.442167   0.437833  -0.033011
    10  O   -0.075041  -0.000756   0.442167   8.433242  -0.077958  -0.008528
    11  C   -0.096233   0.003787   0.437833  -0.077958   5.215178   0.299633
    12  C    0.004489  -0.000052  -0.033011  -0.008528   0.299633   5.133509
    13  H    0.000028  -0.000000  -0.000032   0.000000  -0.001579   0.000219
    14  H   -0.000028   0.000000  -0.000023   0.000000   0.002124   0.000178
    15  H   -0.000015  -0.000000   0.000106  -0.000000  -0.001014  -0.002121
    16  C   -0.002697   0.000299  -0.000026   0.000001   0.000023  -0.000000
    17  H   -0.000359   0.000007   0.000015  -0.000000  -0.000007   0.000000
    18  H    0.002866   0.000165  -0.000073  -0.000000  -0.000013   0.000000
    19  H   -0.000012  -0.000011   0.000003  -0.000000  -0.000001   0.000000
    20  C   -0.047730   0.218050  -0.005954  -0.006775  -0.000493   0.000002
    21  H   -0.002557  -0.039857   0.000568   0.000254   0.000144  -0.000000
    22  H    0.005252  -0.036691  -0.000050   0.000122   0.000008  -0.000000
    23  H   -0.006699  -0.034953   0.000130   0.012185  -0.000303   0.000004
    24  H    0.000066   0.000000   0.001901   0.000332  -0.055267   0.405777
    25  H    0.000611  -0.000003  -0.003674   0.012574  -0.040946   0.399254
    26  C   -0.000031   0.000001  -0.004247  -0.000272  -0.065669   0.336313
    27  H    0.000004  -0.000000   0.000136  -0.000022   0.000477  -0.040592
    28  C   -0.000083   0.000000  -0.000041  -0.013429   0.001198  -0.007148
    29  C   -0.000005   0.000000   0.000867   0.000734  -0.003945  -0.040432
    30  H    0.000000   0.000000   0.000035   0.000206  -0.000106   0.000500
    31  H    0.000216  -0.000005  -0.001203   0.024754  -0.001515  -0.001828
    32  C   -0.000001   0.000000  -0.000019   0.000002  -0.000187   0.003704
    33  H    0.000000   0.000000  -0.000000   0.000000  -0.000007   0.000093
    34  H   -0.000000   0.000000   0.000000  -0.000000  -0.000009  -0.000101
    35  H    0.000000  -0.000000   0.000002  -0.000000   0.000041  -0.000085
    36  H    0.000001  -0.000000  -0.000029   0.000038   0.000059   0.000234
              13         14         15         16         17         18
     1  C   -0.039553  -0.042545  -0.044167  -0.000387  -0.000189   0.000102
     2  C    0.385244   0.391120   0.388812  -0.000002   0.000014  -0.000001
     3  C   -0.000974  -0.003105   0.000765  -0.004995  -0.000005   0.000370
     4  O    0.000331   0.015920   0.000294  -0.010308   0.010711   0.000315
     5  C   -0.000113   0.000765   0.000017  -0.046332  -0.006306  -0.001133
     6  O    0.000000  -0.000006   0.000000   0.216600  -0.034140  -0.040414
     7  C    0.000028  -0.000028  -0.000015  -0.002697  -0.000359   0.002866
     8  O   -0.000000   0.000000  -0.000000   0.000299   0.000007   0.000165
     9  C   -0.000032  -0.000023   0.000106  -0.000026   0.000015  -0.000073
    10  O    0.000000   0.000000  -0.000000   0.000001  -0.000000  -0.000000
    11  C   -0.001579   0.002124  -0.001014   0.000023  -0.000007  -0.000013
    12  C    0.000219   0.000178  -0.002121  -0.000000   0.000000   0.000000
    13  H    0.575234  -0.025301  -0.036926  -0.000000   0.000001   0.000000
    14  H   -0.025301   0.477202  -0.022927   0.000003  -0.000002  -0.000000
    15  H   -0.036926  -0.022927   0.574992   0.000000  -0.000000  -0.000000
    16  C   -0.000000   0.000003   0.000000   4.848547   0.390046   0.380669
    17  H    0.000001  -0.000002  -0.000000   0.390046   0.510973  -0.039249
    18  H    0.000000  -0.000000  -0.000000   0.380669  -0.039249   0.598130
    19  H    0.000000  -0.000000   0.000000   0.391393  -0.028519  -0.034441
    20  C    0.000000  -0.000000  -0.000000  -0.000135   0.000000   0.000024
    21  H   -0.000000  -0.000000   0.000000   0.000018   0.000001  -0.000003
    22  H   -0.000000   0.000000   0.000000   0.000003  -0.000000  -0.000001
    23  H   -0.000000   0.000000  -0.000000   0.000000   0.000000   0.000001
    24  H   -0.000735   0.000046   0.002129   0.000000   0.000000  -0.000000
    25  H   -0.000030   0.000004   0.000050  -0.000000  -0.000000  -0.000000
    26  C   -0.000056  -0.000006  -0.000217  -0.000000  -0.000000   0.000000
    27  H    0.000887   0.000021   0.000058  -0.000000   0.000000   0.000000
    28  C    0.000000   0.000000   0.000000   0.000000  -0.000000   0.000000
    29  C    0.000043  -0.000000   0.000004  -0.000000  -0.000000   0.000000
    30  H    0.000000  -0.000000  -0.000000   0.000000   0.000000  -0.000000
    31  H   -0.000000   0.000000  -0.000000   0.000000   0.000000  -0.000000
    32  C    0.000001  -0.000000  -0.000000   0.000000  -0.000000   0.000000
    33  H    0.000002   0.000000  -0.000000   0.000000  -0.000000  -0.000000
    34  H    0.000000   0.000000   0.000000  -0.000000  -0.000000   0.000000
    35  H   -0.000001   0.000000   0.000000   0.000000   0.000000  -0.000000
    36  H   -0.000000  -0.000000   0.000000   0.000000   0.000000  -0.000000
              19         20         21         22         23         24
     1  C    0.000006   0.000044  -0.000023  -0.000001  -0.000009  -0.000045
     2  C   -0.000000  -0.000000   0.000000   0.000000   0.000000  -0.002213
     3  C   -0.000079  -0.000133  -0.000150   0.000004   0.000037   0.000204
     4  O    0.000235   0.000001   0.000000  -0.000000  -0.000000  -0.000000
     5  C    0.004719  -0.005937   0.002730  -0.000045  -0.000005  -0.000025
     6  O   -0.036816   0.000626   0.000584  -0.000017   0.000016  -0.000000
     7  C   -0.000012  -0.047730  -0.002557   0.005252  -0.006699   0.000066
     8  O   -0.000011   0.218050  -0.039857  -0.036691  -0.034953   0.000000
     9  C    0.000003  -0.005954   0.000568  -0.000050   0.000130   0.001901
    10  O   -0.000000  -0.006775   0.000254   0.000122   0.012185   0.000332
    11  C   -0.000001  -0.000493   0.000144   0.000008  -0.000303  -0.055267
    12  C    0.000000   0.000002  -0.000000  -0.000000   0.000004   0.405777
    13  H    0.000000   0.000000  -0.000000  -0.000000  -0.000000  -0.000735
    14  H   -0.000000  -0.000000  -0.000000   0.000000   0.000000   0.000046
    15  H    0.000000  -0.000000   0.000000   0.000000  -0.000000   0.002129
    16  C    0.391393  -0.000135   0.000018   0.000003   0.000000   0.000000
    17  H   -0.028519   0.000000   0.000001  -0.000000   0.000000   0.000000
    18  H   -0.034441   0.000024  -0.000003  -0.000001   0.000001  -0.000000
    19  H    0.570430   0.000003  -0.000003  -0.000000  -0.000000  -0.000000
    20  C    0.000003   4.841434   0.382083   0.390561   0.390018   0.000000
    21  H   -0.000003   0.382083   0.597648  -0.034076  -0.039831   0.000000
    22  H   -0.000000   0.390561  -0.034076   0.574207  -0.029230   0.000000
    23  H   -0.000000   0.390018  -0.039831  -0.029230   0.518528  -0.000000
    24  H   -0.000000   0.000000   0.000000   0.000000  -0.000000   0.576563
    25  H   -0.000000  -0.000001  -0.000000   0.000000   0.000014  -0.024202
    26  C    0.000000   0.000000  -0.000000   0.000000  -0.000000  -0.047512
    27  H   -0.000000   0.000000  -0.000000  -0.000000   0.000000  -0.002869
    28  C   -0.000000  -0.000000   0.000000   0.000000   0.000001   0.000072
    29  C    0.000000  -0.000000   0.000000   0.000000  -0.000000   0.001531
    30  H    0.000000   0.000000  -0.000000  -0.000000  -0.000000   0.000050
    31  H    0.000000   0.000002  -0.000000  -0.000000  -0.000003   0.000072
    32  C    0.000000  -0.000000   0.000000   0.000000  -0.000000  -0.000109
    33  H    0.000000  -0.000000  -0.000000  -0.000000  -0.000000  -0.000012
    34  H    0.000000  -0.000000   0.000000   0.000000  -0.000000   0.000011
    35  H   -0.000000   0.000000  -0.000000  -0.000000   0.000000  -0.000002
    36  H   -0.000000  -0.000000  -0.000000  -0.000000   0.000000  -0.000009
              25         26         27         28         29         30
     1  C    0.002089  -0.001213  -0.000138  -0.000005   0.000200   0.000000
     2  C    0.000091  -0.000587  -0.000686  -0.000001   0.000022  -0.000000
     3  C    0.000001   0.000079  -0.000018  -0.000001   0.000009   0.000000
     4  O    0.000000   0.000001   0.000000  -0.000000   0.000000   0.000000
     5  C   -0.000048  -0.000029  -0.000000   0.000003  -0.000005  -0.000000
     6  O    0.000000  -0.000000   0.000000  -0.000000  -0.000000   0.000000
     7  C    0.000611  -0.000031   0.000004  -0.000083  -0.000005   0.000000
     8  O   -0.000003   0.000001  -0.000000   0.000000   0.000000   0.000000
     9  C   -0.003674  -0.004247   0.000136  -0.000041   0.000867   0.000035
    10  O    0.012574  -0.000272  -0.000022  -0.013429   0.000734   0.000206
    11  C   -0.040946  -0.065669   0.000477   0.001198  -0.003945  -0.000106
    12  C    0.399254   0.336313  -0.040592  -0.007148  -0.040432   0.000500
    13  H   -0.000030  -0.000056   0.000887   0.000000   0.000043   0.000000
    14  H    0.000004  -0.000006   0.000021   0.000000  -0.000000  -0.000000
    15  H    0.000050  -0.000217   0.000058   0.000000   0.000004  -0.000000
    16  C   -0.000000  -0.000000  -0.000000   0.000000  -0.000000   0.000000
    17  H   -0.000000  -0.000000   0.000000  -0.000000  -0.000000   0.000000
    18  H   -0.000000   0.000000   0.000000   0.000000   0.000000  -0.000000
    19  H   -0.000000   0.000000  -0.000000  -0.000000   0.000000   0.000000
    20  C   -0.000001   0.000000   0.000000  -0.000000  -0.000000   0.000000
    21  H   -0.000000  -0.000000  -0.000000   0.000000   0.000000  -0.000000
    22  H    0.000000   0.000000  -0.000000   0.000000   0.000000  -0.000000
    23  H    0.000014  -0.000000   0.000000   0.000001  -0.000000  -0.000000
    24  H   -0.024202  -0.047512  -0.002869   0.000072   0.001531   0.000050
    25  H    0.479046  -0.038291   0.002767  -0.000109  -0.000894  -0.000207
    26  C   -0.038291   5.005157   0.391153  -0.041195   0.710964  -0.003331
    27  H    0.002767   0.391153   0.541915   0.003808  -0.044656  -0.000143
    28  C   -0.000109  -0.041195   0.003808   5.192171   0.339935   0.373272
    29  C   -0.000894   0.710964  -0.044656   0.339935   4.851659  -0.044131
    30  H   -0.000207  -0.003331  -0.000143   0.373272  -0.044131   0.603853
    31  H   -0.000884  -0.001551  -0.000017   0.374411  -0.028618  -0.017459
    32  C    0.000075  -0.046251  -0.007041  -0.069379   0.354176   0.000397
    33  H    0.000007  -0.000403   0.003589   0.003932  -0.041096  -0.000134
    34  H    0.000001  -0.001383   0.000149   0.000467  -0.045558   0.002205
    35  H   -0.000001  -0.000792   0.000215  -0.001604  -0.041137  -0.000315
    36  H    0.000052   0.001342  -0.000117   0.391162  -0.045979  -0.039050
              31         32         33         34         35         36
     1  C   -0.000010  -0.000000   0.000001   0.000000   0.000001   0.000000
     2  C   -0.000001   0.000001  -0.000002  -0.000000   0.000000   0.000000
     3  C    0.000001  -0.000000   0.000000   0.000000  -0.000000  -0.000000
     4  O   -0.000000   0.000000   0.000000   0.000000  -0.000000  -0.000000
     5  C   -0.000005   0.000000  -0.000000  -0.000000  -0.000000   0.000000
     6  O    0.000000  -0.000000   0.000000  -0.000000   0.000000   0.000000
     7  C    0.000216  -0.000001   0.000000  -0.000000   0.000000   0.000001
     8  O   -0.000005   0.000000   0.000000   0.000000  -0.000000  -0.000000
     9  C   -0.001203  -0.000019  -0.000000   0.000000   0.000002  -0.000029
    10  O    0.024754   0.000002   0.000000  -0.000000  -0.000000   0.000038
    11  C   -0.001515  -0.000187  -0.000007  -0.000009   0.000041   0.000059
    12  C   -0.001828   0.003704   0.000093  -0.000101  -0.000085   0.000234
    13  H   -0.000000   0.000001   0.000002   0.000000  -0.000001  -0.000000
    14  H    0.000000  -0.000000   0.000000   0.000000   0.000000  -0.000000
    15  H   -0.000000  -0.000000  -0.000000   0.000000   0.000000   0.000000
    16  C    0.000000   0.000000   0.000000  -0.000000   0.000000   0.000000
    17  H    0.000000  -0.000000  -0.000000  -0.000000   0.000000   0.000000
    18  H   -0.000000   0.000000  -0.000000   0.000000  -0.000000  -0.000000
    19  H    0.000000   0.000000   0.000000   0.000000  -0.000000  -0.000000
    20  C    0.000002  -0.000000  -0.000000  -0.000000   0.000000  -0.000000
    21  H   -0.000000   0.000000  -0.000000   0.000000  -0.000000  -0.000000
    22  H   -0.000000   0.000000  -0.000000   0.000000  -0.000000  -0.000000
    23  H   -0.000003  -0.000000  -0.000000  -0.000000   0.000000   0.000000
    24  H    0.000072  -0.000109  -0.000012   0.000011  -0.000002  -0.000009
    25  H   -0.000884   0.000075   0.000007   0.000001  -0.000001   0.000052
    26  C   -0.001551  -0.046251  -0.000403  -0.001383  -0.000792   0.001342
    27  H   -0.000017  -0.007041   0.003589   0.000149   0.000215  -0.000117
    28  C    0.374411  -0.069379   0.003932   0.000467  -0.001604   0.391162
    29  C   -0.028618   0.354176  -0.041096  -0.045558  -0.041137  -0.045979
    30  H   -0.017459   0.000397  -0.000134   0.002205  -0.000315  -0.039050
    31  H    0.396600   0.002869  -0.000085  -0.000016  -0.000061  -0.020928
    32  C    0.002869   5.105688   0.389896   0.384647   0.383733  -0.003909
    33  H   -0.000085   0.389896   0.546802  -0.027786  -0.025835   0.000107
    34  H   -0.000016   0.384647  -0.027786   0.592116  -0.040273  -0.000795
    35  H   -0.000061   0.383733  -0.025835  -0.040273   0.573252   0.003217
    36  H   -0.020928  -0.003909   0.000107  -0.000795   0.003217   0.578621
          Atomic-Atomic Spin Densities.
               1          2          3          4          5          6
     1  C    0.364171  -0.005317   0.068404  -0.006019  -0.010175   0.000074
     2  C   -0.005317  -0.050050  -0.003969   0.000731  -0.000038  -0.000000
     3  C    0.068404  -0.003969  -0.106013  -0.117882   0.065675  -0.002402
     4  O   -0.006019   0.000731  -0.117882   0.534919  -0.004847   0.000596
     5  C   -0.010175  -0.000038   0.065675  -0.004847   0.317742  -0.021280
     6  O    0.000074  -0.000000  -0.002402   0.000596  -0.021280   0.007261
     7  C   -0.003437   0.000014  -0.004385   0.000397  -0.054698   0.004391
     8  O    0.000017  -0.000000  -0.000030  -0.000000   0.001984  -0.000234
     9  C   -0.008053  -0.000062  -0.002479   0.000046  -0.008806   0.000005
    10  O    0.000625   0.000000   0.000030  -0.000000   0.000478  -0.000000
    11  C   -0.078575   0.004536  -0.006634   0.000530  -0.002673   0.000004
    12  C    0.001804   0.000177  -0.000123   0.000001   0.000010  -0.000000
    13  H   -0.006804   0.003419  -0.000373   0.000165  -0.000016   0.000000
    14  H   -0.000575   0.003155   0.000698  -0.001953  -0.000026   0.000000
    15  H   -0.005235   0.003122  -0.000112   0.000046  -0.000007   0.000000
    16  C   -0.000008   0.000000  -0.000598  -0.000065  -0.004884   0.002358
    17  H   -0.000071  -0.000001  -0.001263  -0.000180  -0.001026   0.000143
    18  H    0.000005   0.000000   0.000421  -0.000081   0.001349  -0.000312
    19  H    0.000001  -0.000000  -0.000023  -0.000032   0.000507   0.000168
    20  C    0.000026   0.000000  -0.000037  -0.000000   0.001771  -0.000071
    21  H   -0.000008   0.000000   0.000003   0.000000  -0.000456   0.000056
    22  H   -0.000000  -0.000000  -0.000000   0.000000  -0.000024   0.000002
    23  H    0.000011  -0.000000   0.000006  -0.000000   0.000168  -0.000002
    24  H    0.000401  -0.000303   0.000018  -0.000000   0.000002  -0.000000
    25  H    0.000332  -0.000010  -0.000006  -0.000000   0.000019   0.000000
    26  C    0.000421   0.000036   0.000009  -0.000001   0.000016  -0.000000
    27  H   -0.000197   0.000020  -0.000011   0.000000  -0.000001   0.000000
    28  C   -0.000004  -0.000000  -0.000000   0.000000  -0.000000   0.000000
    29  C    0.000001  -0.000002   0.000001  -0.000000   0.000001  -0.000000
    30  H    0.000000   0.000000   0.000000  -0.000000   0.000000  -0.000000
    31  H    0.000007   0.000000   0.000000  -0.000000  -0.000000  -0.000000
    32  C    0.000004  -0.000000   0.000000  -0.000000   0.000000  -0.000000
    33  H    0.000000   0.000000   0.000000  -0.000000   0.000000  -0.000000
    34  H    0.000000  -0.000000   0.000000  -0.000000   0.000000  -0.000000
    35  H   -0.000001   0.000000  -0.000000   0.000000  -0.000000   0.000000
    36  H   -0.000000   0.000000  -0.000000   0.000000  -0.000000   0.000000
               7          8          9         10         11         12
     1  C   -0.003437   0.000017  -0.008053   0.000625  -0.078575   0.001804
     2  C    0.000014  -0.000000  -0.000062   0.000000   0.004536   0.000177
     3  C   -0.004385  -0.000030  -0.002479   0.000030  -0.006634  -0.000123
     4  O    0.000397  -0.000000   0.000046  -0.000000   0.000530   0.000001
     5  C   -0.054698   0.001984  -0.008806   0.000478  -0.002673   0.000010
     6  O    0.004391  -0.000234   0.000005  -0.000000   0.000004  -0.000000
     7  C   -0.230846   0.011761   0.076265  -0.001057   0.000286   0.000094
     8  O    0.011761  -0.000284  -0.003784   0.000314  -0.000077   0.000000
     9  C    0.076265  -0.003784   0.208478  -0.135619   0.086412  -0.005172
    10  O   -0.001057   0.000314  -0.135619   0.438603  -0.001952  -0.000280
    11  C    0.000286  -0.000077   0.086412  -0.001952  -0.184224   0.008763
    12  C    0.000094   0.000000  -0.005172  -0.000280   0.008763   0.004259
    13  H    0.000009  -0.000000   0.000024  -0.000000   0.000861  -0.000075
    14  H    0.000002  -0.000000  -0.000004  -0.000000  -0.000064   0.000022
    15  H    0.000006  -0.000000   0.000018  -0.000001   0.000806  -0.000176
    16  C    0.001503  -0.000043  -0.000014  -0.000000   0.000015  -0.000000
    17  H    0.000078  -0.000001   0.000004  -0.000000   0.000005  -0.000000
    18  H   -0.000719   0.000048  -0.000003   0.000000  -0.000006   0.000000
    19  H   -0.000002   0.000000  -0.000001   0.000000   0.000000   0.000000
    20  C    0.008569  -0.002470  -0.000868  -0.000079  -0.000083  -0.000000
    21  H   -0.001494   0.000484   0.000236  -0.000023   0.000015   0.000000
    22  H   -0.000085  -0.000049   0.000022  -0.000036   0.000001   0.000000
    23  H   -0.000547  -0.000037  -0.002415   0.000302  -0.000095  -0.000001
    24  H   -0.000013   0.000000  -0.000144   0.000018   0.000382  -0.000806
    25  H   -0.000106  -0.000000  -0.001336  -0.000444   0.001087   0.000613
    26  C   -0.000051   0.000000  -0.000234   0.000235   0.000689  -0.002713
    27  H    0.000003  -0.000000   0.000065  -0.000003   0.000485  -0.000232
    28  C    0.000008  -0.000000   0.000400   0.000340  -0.000053   0.000061
    29  C   -0.000005   0.000000  -0.000395   0.000046  -0.000977   0.000462
    30  H   -0.000000   0.000000  -0.000017   0.000003   0.000003  -0.000032
    31  H   -0.000022   0.000001  -0.000750  -0.001742   0.000102  -0.000074
    32  C   -0.000000   0.000000  -0.000014   0.000001   0.000007  -0.000007
    33  H    0.000000   0.000000  -0.000000   0.000000  -0.000002   0.000001
    34  H   -0.000000   0.000000  -0.000000   0.000000   0.000000   0.000000
    35  H    0.000000  -0.000000   0.000003  -0.000001  -0.000001  -0.000000
    36  H    0.000000  -0.000000   0.000026  -0.000031   0.000001  -0.000001
              13         14         15         16         17         18
     1  C   -0.006804  -0.000575  -0.005235  -0.000008  -0.000071   0.000005
     2  C    0.003419   0.003155   0.003122   0.000000  -0.000001   0.000000
     3  C   -0.000373   0.000698  -0.000112  -0.000598  -0.001263   0.000421
     4  O    0.000165  -0.001953   0.000046  -0.000065  -0.000180  -0.000081
     5  C   -0.000016  -0.000026  -0.000007  -0.004884  -0.001026   0.001349
     6  O    0.000000   0.000000   0.000000   0.002358   0.000143  -0.000312
     7  C    0.000009   0.000002   0.000006   0.001503   0.000078  -0.000719
     8  O   -0.000000  -0.000000  -0.000000  -0.000043  -0.000001   0.000048
     9  C    0.000024  -0.000004   0.000018  -0.000014   0.000004  -0.000003
    10  O   -0.000000  -0.000000  -0.000001  -0.000000  -0.000000   0.000000
    11  C    0.000861  -0.000064   0.000806   0.000015   0.000005  -0.000006
    12  C   -0.000075   0.000022  -0.000176  -0.000000  -0.000000   0.000000
    13  H    0.020460  -0.001029  -0.003665  -0.000000   0.000001  -0.000000
    14  H   -0.001029   0.000888   0.000226   0.000000   0.000000   0.000000
    15  H   -0.003665   0.000226   0.014630   0.000000  -0.000000   0.000000
    16  C   -0.000000   0.000000   0.000000   0.004462   0.001001  -0.000275
    17  H    0.000001   0.000000  -0.000000   0.001001   0.001502  -0.000561
    18  H   -0.000000   0.000000   0.000000  -0.000275  -0.000561  -0.000542
    19  H    0.000000   0.000000  -0.000000  -0.000183  -0.000515   0.000694
    20  C    0.000000  -0.000000  -0.000000   0.000051   0.000001  -0.000011
    21  H   -0.000000   0.000000   0.000000  -0.000010  -0.000000   0.000001
    22  H   -0.000000   0.000000   0.000000  -0.000001  -0.000000   0.000000
    23  H    0.000000  -0.000000  -0.000000   0.000001   0.000000  -0.000000
    24  H    0.000140  -0.000013  -0.000328   0.000000   0.000000  -0.000000
    25  H    0.000015  -0.000001  -0.000032   0.000000   0.000000  -0.000000
    26  C   -0.000256   0.000003   0.000093  -0.000000  -0.000000   0.000000
    27  H    0.000189  -0.000002  -0.000038   0.000000   0.000000  -0.000000
    28  C    0.000000  -0.000000  -0.000000   0.000000   0.000000  -0.000000
    29  C   -0.000002  -0.000000   0.000001  -0.000000  -0.000000   0.000000
    30  H   -0.000000   0.000000   0.000000  -0.000000  -0.000000   0.000000
    31  H   -0.000000   0.000000   0.000000  -0.000000  -0.000000   0.000000
    32  C   -0.000001   0.000000   0.000000  -0.000000  -0.000000   0.000000
    33  H   -0.000000   0.000000   0.000000  -0.000000  -0.000000   0.000000
    34  H   -0.000000   0.000000   0.000000  -0.000000  -0.000000   0.000000
    35  H    0.000000  -0.000000  -0.000000   0.000000   0.000000  -0.000000
    36  H    0.000000  -0.000000  -0.000000   0.000000   0.000000  -0.000000
              19         20         21         22         23         24
     1  C    0.000001   0.000026  -0.000008  -0.000000   0.000011   0.000401
     2  C   -0.000000   0.000000   0.000000  -0.000000  -0.000000  -0.000303
     3  C   -0.000023  -0.000037   0.000003  -0.000000   0.000006   0.000018
     4  O   -0.000032  -0.000000   0.000000   0.000000  -0.000000  -0.000000
     5  C    0.000507   0.001771  -0.000456  -0.000024   0.000168   0.000002
     6  O    0.000168  -0.000071   0.000056   0.000002  -0.000002  -0.000000
     7  C   -0.000002   0.008569  -0.001494  -0.000085  -0.000547  -0.000013
     8  O    0.000000  -0.002470   0.000484  -0.000049  -0.000037   0.000000
     9  C   -0.000001  -0.000868   0.000236   0.000022  -0.002415  -0.000144
    10  O    0.000000  -0.000079  -0.000023  -0.000036   0.000302   0.000018
    11  C    0.000000  -0.000083   0.000015   0.000001  -0.000095   0.000382
    12  C    0.000000  -0.000000   0.000000   0.000000  -0.000001  -0.000806
    13  H    0.000000   0.000000  -0.000000  -0.000000   0.000000   0.000140
    14  H    0.000000  -0.000000   0.000000   0.000000  -0.000000  -0.000013
    15  H   -0.000000  -0.000000   0.000000   0.000000  -0.000000  -0.000328
    16  C   -0.000183   0.000051  -0.000010  -0.000001   0.000001   0.000000
    17  H   -0.000515   0.000001  -0.000000  -0.000000   0.000000   0.000000
    18  H    0.000694  -0.000011   0.000001   0.000000  -0.000000  -0.000000
    19  H   -0.000133  -0.000000   0.000000   0.000000  -0.000000  -0.000000
    20  C   -0.000000  -0.015910   0.001862   0.001278   0.001072   0.000000
    21  H    0.000000   0.001862  -0.000583  -0.000267  -0.000302  -0.000000
    22  H    0.000000   0.001278  -0.000267  -0.000400  -0.000618  -0.000000
    23  H   -0.000000   0.001072  -0.000302  -0.000618   0.002216   0.000000
    24  H   -0.000000   0.000000  -0.000000  -0.000000   0.000000  -0.001243
    25  H   -0.000000  -0.000000  -0.000000  -0.000000   0.000003   0.000426
    26  C    0.000000  -0.000000   0.000000   0.000000  -0.000000   0.000326
    27  H   -0.000000   0.000000  -0.000000  -0.000000   0.000000   0.000146
    28  C   -0.000000  -0.000000  -0.000000  -0.000000   0.000000   0.000028
    29  C    0.000000  -0.000000   0.000000   0.000000  -0.000000  -0.000219
    30  H    0.000000  -0.000000   0.000000   0.000000  -0.000000  -0.000003
    31  H    0.000000  -0.000000   0.000000   0.000000  -0.000000  -0.000024
    32  C    0.000000  -0.000000   0.000000   0.000000  -0.000000   0.000001
    33  H    0.000000   0.000000  -0.000000   0.000000  -0.000000  -0.000000
    34  H    0.000000  -0.000000   0.000000   0.000000  -0.000000   0.000000
    35  H   -0.000000   0.000000  -0.000000  -0.000000   0.000000  -0.000000
    36  H   -0.000000   0.000000  -0.000000  -0.000000   0.000000   0.000000
              25         26         27         28         29         30
     1  C    0.000332   0.000421  -0.000197  -0.000004   0.000001   0.000000
     2  C   -0.000010   0.000036   0.000020  -0.000000  -0.000002   0.000000
     3  C   -0.000006   0.000009  -0.000011  -0.000000   0.000001   0.000000
     4  O   -0.000000  -0.000001   0.000000   0.000000  -0.000000  -0.000000
     5  C    0.000019   0.000016  -0.000001  -0.000000   0.000001   0.000000
     6  O    0.000000  -0.000000   0.000000   0.000000  -0.000000  -0.000000
     7  C   -0.000106  -0.000051   0.000003   0.000008  -0.000005  -0.000000
     8  O   -0.000000   0.000000  -0.000000  -0.000000   0.000000   0.000000
     9  C   -0.001336  -0.000234   0.000065   0.000400  -0.000395  -0.000017
    10  O   -0.000444   0.000235  -0.000003   0.000340   0.000046   0.000003
    11  C    0.001087   0.000689   0.000485  -0.000053  -0.000977   0.000003
    12  C    0.000613  -0.002713  -0.000232   0.000061   0.000462  -0.000032
    13  H    0.000015  -0.000256   0.000189   0.000000  -0.000002  -0.000000
    14  H   -0.000001   0.000003  -0.000002  -0.000000  -0.000000   0.000000
    15  H   -0.000032   0.000093  -0.000038  -0.000000   0.000001   0.000000
    16  C    0.000000  -0.000000   0.000000   0.000000  -0.000000  -0.000000
    17  H    0.000000  -0.000000   0.000000   0.000000  -0.000000  -0.000000
    18  H   -0.000000   0.000000  -0.000000  -0.000000   0.000000   0.000000
    19  H   -0.000000   0.000000  -0.000000  -0.000000   0.000000   0.000000
    20  C   -0.000000  -0.000000   0.000000  -0.000000  -0.000000  -0.000000
    21  H   -0.000000   0.000000  -0.000000  -0.000000   0.000000   0.000000
    22  H   -0.000000   0.000000  -0.000000  -0.000000   0.000000   0.000000
    23  H    0.000003  -0.000000   0.000000   0.000000  -0.000000  -0.000000
    24  H    0.000426   0.000326   0.000146   0.000028  -0.000219  -0.000003
    25  H   -0.001638  -0.000411   0.000044   0.000152  -0.000218   0.000013
    26  C   -0.000411   0.045913  -0.000734  -0.000189   0.002510  -0.000074
    27  H    0.000044  -0.000734  -0.002649   0.000004  -0.000052  -0.000002
    28  C    0.000152  -0.000189   0.000004   0.002255   0.001843  -0.000034
    29  C   -0.000218   0.002510  -0.000052   0.001843  -0.056973   0.001033
    30  H    0.000013  -0.000074  -0.000002  -0.000034   0.001033  -0.003138
    31  H   -0.000106   0.000159  -0.000006   0.001604   0.000127   0.000040
    32  C    0.000002  -0.000252  -0.000050  -0.000054   0.001440  -0.000027
    33  H   -0.000000  -0.000098  -0.000008   0.000005   0.000171   0.000000
    34  H   -0.000000  -0.000052  -0.000004  -0.000024   0.000885  -0.000089
    35  H    0.000000   0.000044   0.000008  -0.000085   0.000954   0.000026
    36  H    0.000000   0.000037   0.000001  -0.000288   0.000587   0.000422
              31         32         33         34         35         36
     1  C    0.000007   0.000004   0.000000   0.000000  -0.000001  -0.000000
     2  C    0.000000  -0.000000   0.000000  -0.000000   0.000000   0.000000
     3  C    0.000000   0.000000   0.000000   0.000000  -0.000000  -0.000000
     4  O   -0.000000  -0.000000  -0.000000  -0.000000   0.000000   0.000000
     5  C   -0.000000   0.000000   0.000000   0.000000  -0.000000  -0.000000
     6  O   -0.000000  -0.000000  -0.000000  -0.000000   0.000000   0.000000
     7  C   -0.000022  -0.000000   0.000000  -0.000000   0.000000   0.000000
     8  O    0.000001   0.000000   0.000000   0.000000  -0.000000  -0.000000
     9  C   -0.000750  -0.000014  -0.000000  -0.000000   0.000003   0.000026
    10  O   -0.001742   0.000001   0.000000   0.000000  -0.000001  -0.000031
    11  C    0.000102   0.000007  -0.000002   0.000000  -0.000001   0.000001
    12  C   -0.000074  -0.000007   0.000001   0.000000  -0.000000  -0.000001
    13  H   -0.000000  -0.000001  -0.000000  -0.000000   0.000000   0.000000
    14  H    0.000000   0.000000   0.000000   0.000000  -0.000000  -0.000000
    15  H    0.000000   0.000000   0.000000   0.000000  -0.000000  -0.000000
    16  C   -0.000000  -0.000000  -0.000000  -0.000000   0.000000   0.000000
    17  H   -0.000000  -0.000000  -0.000000  -0.000000   0.000000   0.000000
    18  H    0.000000   0.000000   0.000000   0.000000  -0.000000  -0.000000
    19  H    0.000000   0.000000   0.000000   0.000000  -0.000000  -0.000000
    20  C   -0.000000  -0.000000   0.000000  -0.000000   0.000000   0.000000
    21  H    0.000000   0.000000  -0.000000   0.000000  -0.000000  -0.000000
    22  H    0.000000   0.000000   0.000000   0.000000  -0.000000  -0.000000
    23  H   -0.000000  -0.000000  -0.000000  -0.000000   0.000000   0.000000
    24  H   -0.000024   0.000001  -0.000000   0.000000  -0.000000   0.000000
    25  H   -0.000106   0.000002  -0.000000  -0.000000   0.000000   0.000000
    26  C    0.000159  -0.000252  -0.000098  -0.000052   0.000044   0.000037
    27  H   -0.000006  -0.000050  -0.000008  -0.000004   0.000008   0.000001
    28  C    0.001604  -0.000054   0.000005  -0.000024  -0.000085  -0.000288
    29  C    0.000127   0.001440   0.000171   0.000885   0.000954   0.000587
    30  H    0.000040  -0.000027   0.000000  -0.000089   0.000026   0.000422
    31  H   -0.001558   0.000019  -0.000000   0.000005  -0.000011  -0.000144
    32  C    0.000019   0.005933  -0.000203  -0.000374  -0.000465  -0.000043
    33  H   -0.000000  -0.000203  -0.000196   0.000058   0.000015  -0.000001
    34  H    0.000005  -0.000374   0.000058  -0.002582   0.000560   0.000058
    35  H   -0.000011  -0.000465   0.000015   0.000560  -0.002651  -0.000109
    36  H   -0.000144  -0.000043  -0.000001   0.000058  -0.000109  -0.001625
 Mulliken charges and spin densities:
               1          2
     1  C   -0.062556   0.311827
     2  C   -0.517635  -0.044540
     3  C    0.428260  -0.111075
     4  O   -0.666786   0.406370
     5  C    0.258519   0.280765
     6  O   -0.666592  -0.009243
     7  C    0.249133  -0.194081
     8  O   -0.658576   0.007602
     9  C    0.436005   0.201837
    10  O   -0.751299   0.299727
    11  C   -0.063617  -0.170427
    12  C   -0.390907   0.006575
    13  H    0.143307   0.013061
    14  H    0.206559   0.001329
    15  H    0.140161   0.009356
    16  C   -0.162722   0.003309
    17  H    0.197008  -0.000883
    18  H    0.132686   0.000009
    19  H    0.133092   0.000482
    20  C   -0.155690  -0.004899
    21  H    0.132470  -0.000487
    22  H    0.129954  -0.000176
    23  H    0.190099  -0.000240
    24  H    0.144244  -0.001206
    25  H    0.212655  -0.001603
    26  C   -0.191974   0.045426
    27  H    0.151120  -0.003026
    28  C   -0.547437   0.005969
    29  C    0.076312  -0.048780
    30  H    0.124357  -0.001876
    31  H    0.275262  -0.002374
    32  C   -0.498296   0.005915
    33  H    0.150932  -0.000259
    34  H    0.136326  -0.001559
    35  H    0.149645  -0.001714
    36  H    0.135981  -0.001109
 Sum of Mulliken charges =  -1.00000   1.00000
 Mulliken charges and spin densities with hydrogens summed into heavy atoms:
               1          2
     1  C   -0.062556   0.311827
     2  C   -0.027608  -0.020795
     3  C    0.428260  -0.111075
     4  O   -0.666786   0.406370
     5  C    0.258519   0.280765
     6  O   -0.666592  -0.009243
     7  C    0.249133  -0.194081
     8  O   -0.658576   0.007602
     9  C    0.436005   0.201837
    10  O   -0.751299   0.299727
    11  C   -0.063617  -0.170427
    12  C   -0.034009   0.003766
    16  C    0.300064   0.002917
    20  C    0.296833  -0.005802
    26  C   -0.040854   0.042399
    28  C   -0.011837   0.000610
    29  C    0.076312  -0.048780
    32  C   -0.061393   0.002383
 Electronic spatial extent (au):  <R**2>=           5232.0206
 Charge=             -1.0000 electrons
 Dipole moment (field-independent basis, Debye):
    X=              2.8967    Y=             -0.8061    Z=              0.7081  Tot=              3.0890
 Quadrupole moment (field-independent basis, Debye-Ang):
   XX=           -138.6814   YY=           -133.2126   ZZ=           -110.6775
   XY=            -10.3254   XZ=             -0.3224   YZ=             -2.6398
 Traceless Quadrupole moment (field-independent basis, Debye-Ang):
   XX=            -11.1575   YY=             -5.6888   ZZ=             16.8463
   XY=            -10.3254   XZ=             -0.3224   YZ=             -2.6398
 Octapole moment (field-independent basis, Debye-Ang**2):
  XXX=            -22.6744  YYY=             27.0227  ZZZ=              6.5221  XYY=              8.7377
  XXY=             20.4088  XXZ=              5.4438  XZZ=            -21.2096  YZZ=              1.2901
  YYZ=              0.2552  XYZ=             13.8357
 Hexadecapole moment (field-independent basis, Debye-Ang**3):
 XXXX=          -4872.9530 YYYY=          -2017.9980 ZZZZ=           -680.2167 XXXY=            -12.0643
 XXXZ=            -80.5016 YYYX=           -112.8205 YYYZ=            -25.5651 ZZZX=            -34.2846
 ZZZY=             -4.1841 XXYY=          -1155.9855 XXZZ=           -858.5603 YYZZ=           -432.9503
 XXYZ=            -31.7902 YYXZ=             15.1899 ZZXY=             12.5711
 N-N= 1.356346447763D+03 E-N=-4.700780286248D+03  KE= 8.383718869533D+02
                          Isotropic Fermi Contact Couplings
        Atom                 a.u.       MegaHertz       Gauss      10(-4) cm-1
     1  C(13)              0.04973      55.91115      19.95049      18.64995
     2  C(13)             -0.01524     -17.13761      -6.11513      -5.71649
     3  C(13)             -0.04179     -46.98173     -16.76425     -15.67142
     4  O(17)              0.12255     -74.29097     -26.50887     -24.78080
     5  C(13)              0.04792      53.87242      19.22302      17.96991
     6  O(17)              0.00537      -3.25290      -1.16072      -1.08505
     7  C(13)             -0.04282     -48.14177     -17.17818     -16.05837
     8  O(17)             -0.00430       2.60451       0.92935       0.86877
     9  C(13)              0.02638      29.65831      10.58282       9.89295
    10  O(17)              0.10917     -66.17978     -23.61459     -22.07520
    11  C(13)             -0.03482     -39.14465     -13.96779     -13.05725
    12  C(13)              0.00259       2.91191       1.03904       0.97131
    13  H(1)               0.00550      24.58862       8.77383       8.20188
    14  H(1)               0.00090       4.04458       1.44321       1.34913
    15  H(1)               0.00411      18.36133       6.55178       6.12468
    16  C(13)              0.00657       7.38440       2.63494       2.46317
    17  H(1)               0.00006       0.27786       0.09915       0.09269
    18  H(1)              -0.00026      -1.18159      -0.42162      -0.39414
    19  H(1)              -0.00004      -0.17549      -0.06262      -0.05854
    20  C(13)             -0.00870      -9.77757      -3.48888      -3.26144
    21  H(1)               0.00018       0.80708       0.28799       0.26921
    22  H(1)               0.00002       0.07245       0.02585       0.02417
    23  H(1)               0.00027       1.20419       0.42968       0.40167
    24  H(1)              -0.00052      -2.34495      -0.83674      -0.78219
    25  H(1)              -0.00043      -1.93003      -0.68868      -0.64379
    26  C(13)              0.00434       4.88304       1.74239       1.62881
    27  H(1)              -0.00097      -4.34474      -1.55031      -1.44925
    28  C(13)              0.00141       1.58679       0.56621       0.52930
    29  C(13)             -0.00889      -9.99230      -3.56550      -3.33307
    30  H(1)              -0.00080      -3.59394      -1.28241      -1.19881
    31  H(1)              -0.00009      -0.38285      -0.13661      -0.12770
    32  C(13)              0.00182       2.04452       0.72954       0.68198
    33  H(1)              -0.00008      -0.37250      -0.13292      -0.12425
    34  H(1)              -0.00067      -2.99398      -1.06833      -0.99868
    35  H(1)              -0.00072      -3.20137      -1.14233      -1.06786
    36  H(1)              -0.00045      -1.99565      -0.71210      -0.66568
 --------------------------------------------------------
       Center         ----  Spin Dipole Couplings  ----
                      3XX-RR        3YY-RR        3ZZ-RR
 --------------------------------------------------------
     1   Atom       -0.088960     -0.118777      0.207737
     2   Atom        0.004792     -0.004140     -0.000652
     3   Atom        0.007181      0.018155     -0.025337
     4   Atom       -0.528943     -0.747275      1.276217
     5   Atom       -0.089966     -0.119997      0.209963
     6   Atom       -0.020799     -0.011472      0.032271
     7   Atom        0.041882      0.072345     -0.114227
     8   Atom       -0.003640      0.018532     -0.014893
     9   Atom       -0.062526     -0.085560      0.148086
    10   Atom       -0.384527     -0.624766      1.009293
    11   Atom        0.038728      0.048166     -0.086894
    12   Atom        0.004090      0.000317     -0.004407
    13   Atom        0.002089      0.001461     -0.003551
    14   Atom       -0.000377      0.003753     -0.003376
    15   Atom        0.001470      0.000173     -0.001644
    16   Atom       -0.000660     -0.002800      0.003461
    17   Atom        0.000102     -0.002411      0.002310
    18   Atom       -0.001219     -0.002073      0.003292
    19   Atom        0.001796     -0.001394     -0.000401
    20   Atom        0.003786     -0.000969     -0.002817
    21   Atom        0.000894      0.001125     -0.002018
    22   Atom        0.000794      0.000169     -0.000963
    23   Atom        0.002139      0.001475     -0.003614
    24   Atom        0.000679      0.000056     -0.000735
    25   Atom        0.002467     -0.000425     -0.002042
    26   Atom        0.014456     -0.014170     -0.000285
    27   Atom        0.000844      0.001617     -0.002461
    28   Atom        0.002741     -0.000945     -0.001796
    29   Atom       -0.009147      0.016681     -0.007534
    30   Atom        0.002000     -0.001161     -0.000839
    31   Atom        0.008545     -0.004184     -0.004361
    32   Atom        0.001008     -0.000834     -0.000173
    33   Atom        0.000840     -0.000513     -0.000327
    34   Atom        0.000604     -0.000201     -0.000403
    35   Atom        0.000607     -0.000266     -0.000341
    36   Atom        0.001647     -0.001470     -0.000177
 --------------------------------------------------------
                        XY            XZ            YZ
 --------------------------------------------------------
     1   Atom       -0.015161      0.111138     -0.035718
     2   Atom       -0.001404     -0.002782      0.000674
     3   Atom        0.017334     -0.004090     -0.005287
     4   Atom       -0.093396      0.715065     -0.249676
     5   Atom       -0.009093      0.104410     -0.032821
     6   Atom        0.010072      0.048087      0.010745
     7   Atom        0.011694     -0.061765      0.027461
     8   Atom       -0.013644     -0.012041     -0.002824
     9   Atom        0.002171      0.091657     -0.021394
    10   Atom       -0.062032      0.600315     -0.099394
    11   Atom        0.007182     -0.041821      0.005394
    12   Atom       -0.002603     -0.003804      0.001605
    13   Atom       -0.003557     -0.001331      0.000592
    14   Atom       -0.005285     -0.003097      0.003280
    15   Atom       -0.002730     -0.002202      0.002248
    16   Atom        0.001552     -0.007544     -0.003239
    17   Atom       -0.000991     -0.007134      0.001934
    18   Atom       -0.000918     -0.002597      0.002004
    19   Atom       -0.000890     -0.002485      0.000626
    20   Atom       -0.001408      0.000432      0.004808
    21   Atom       -0.000924     -0.000526     -0.000591
    22   Atom       -0.000910     -0.000119      0.000030
    23   Atom       -0.004476      0.002799     -0.001027
    24   Atom       -0.000115     -0.001133      0.000635
    25   Atom       -0.003541     -0.003683      0.001918
    26   Atom       -0.008565     -0.029815      0.005692
    27   Atom       -0.000968     -0.000970     -0.001260
    28   Atom        0.000411      0.000814      0.000150
    29   Atom        0.006668      0.028458     -0.006280
    30   Atom        0.000157      0.000157      0.000206
    31   Atom        0.000386      0.001580      0.000119
    32   Atom       -0.000118      0.000806      0.000077
    33   Atom       -0.000098      0.000635      0.000085
    34   Atom        0.000132      0.000041      0.000027
    35   Atom       -0.000012      0.000511      0.000127
    36   Atom        0.000502      0.001470      0.000128
 --------------------------------------------------------


 ---------------------------------------------------------------------------------
              Anisotropic Spin Dipole Couplings in Principal Axis System
 ---------------------------------------------------------------------------------

       Atom             a.u.   MegaHertz   Gauss  10(-4) cm-1        Axes

              Baa    -0.1279   -17.158    -6.122    -5.723  0.8256  0.5204 -0.2180
     1 C(13)  Bbb    -0.1210   -16.231    -5.792    -5.414 -0.4681  0.8475  0.2504
              Bcc     0.2488    33.389    11.914    11.137  0.3151 -0.1046  0.9433
 
              Baa    -0.0044    -0.587    -0.210    -0.196  0.1255  0.9884 -0.0852
     2 C(13)  Bbb    -0.0018    -0.244    -0.087    -0.081  0.3929  0.0293  0.9191
              Bcc     0.0062     0.831     0.297     0.277  0.9110 -0.1488 -0.3847
 
              Baa    -0.0261    -3.505    -1.251    -1.169  0.0757  0.0890  0.9932
     3 C(13)  Bbb    -0.0055    -0.740    -0.264    -0.247  0.8058 -0.5921 -0.0083
              Bcc     0.0316     4.245     1.515     1.416  0.5873  0.8010 -0.1165
 
              Baa    -0.7841    56.735    20.244    18.925  0.6881  0.7094 -0.1528
     4 O(17)  Bbb    -0.7719    55.855    19.930    18.631 -0.6478  0.6954  0.3110
              Bcc     1.5560  -112.590   -40.175   -37.556  0.3269 -0.1149  0.9381
 
              Baa    -0.1241   -16.655    -5.943    -5.556 -0.5879  0.7663  0.2590
     5 C(13)  Bbb    -0.1218   -16.342    -5.831    -5.451  0.7521  0.6357 -0.1738
              Bcc     0.2459    32.997    11.774    11.007  0.2979 -0.0926  0.9501
 
              Baa    -0.0495     3.580     1.277     1.194  0.8636 -0.0885 -0.4964
     6 O(17)  Bbb    -0.0139     1.009     0.360     0.337 -0.0190  0.9780 -0.2076
              Bcc     0.0634    -4.589    -1.637    -1.531  0.5039  0.1887  0.8429
 
              Baa    -0.1399   -18.772    -6.698    -6.262  0.3266 -0.1390  0.9349
     7 C(13)  Bbb     0.0631     8.463     3.020     2.823  0.9270 -0.1457 -0.3455
              Bcc     0.0768    10.309     3.678     3.439  0.1842  0.9795  0.0812
 
              Baa    -0.0249     1.803     0.643     0.601  0.5886  0.2351  0.7735
     8 O(17)  Bbb    -0.0003     0.022     0.008     0.007  0.6710  0.3916 -0.6296
              Bcc     0.0252    -1.825    -0.651    -0.609 -0.4509  0.8896  0.0727
 
              Baa    -0.1026   -13.768    -4.913    -4.593  0.7883 -0.5177 -0.3324
     9 C(13)  Bbb    -0.0812   -10.892    -3.887    -3.633  0.5078  0.8526 -0.1235
              Bcc     0.1838    24.660     8.799     8.226  0.3473 -0.0715  0.9350
 
              Baa    -0.6461    46.753    16.683    15.595  0.5050  0.8530 -0.1319
    10 O(17)  Bbb    -0.5931    42.920    15.315    14.316  0.7898 -0.5183 -0.3280
              Bcc     1.2393   -89.672   -31.997   -29.912  0.3482 -0.0615  0.9354
 
              Baa    -0.0999   -13.405    -4.783    -4.472  0.2908 -0.0489  0.9555
    11 C(13)  Bbb     0.0445     5.965     2.129     1.990 -0.5707  0.7927  0.2143
              Bcc     0.0554     7.440     2.655     2.482  0.7680  0.6076 -0.2026
 
              Baa    -0.0059    -0.794    -0.283    -0.265  0.3296 -0.1039  0.9384
    12 C(13)  Bbb    -0.0010    -0.134    -0.048    -0.045  0.4255  0.9036 -0.0494
              Bcc     0.0069     0.928     0.331     0.310  0.8428 -0.4156 -0.3420
 
              Baa    -0.0039    -2.060    -0.735    -0.687  0.2527  0.0614  0.9656
    13 H(1)   Bbb    -0.0017    -0.904    -0.323    -0.302  0.6286  0.7482 -0.2121
              Bcc     0.0056     2.965     1.058     0.989  0.7355 -0.6606 -0.1505
 
              Baa    -0.0053    -2.837    -1.012    -0.946  0.5374  0.0082  0.8433
    14 H(1)   Bbb    -0.0037    -1.951    -0.696    -0.651  0.6431  0.6429 -0.4161
              Bcc     0.0090     4.788     1.709     1.597 -0.5456  0.7659  0.3402
 
              Baa    -0.0032    -1.708    -0.609    -0.570  0.1357 -0.4709  0.8717
    15 H(1)   Bbb    -0.0019    -1.003    -0.358    -0.335  0.7048  0.6642  0.2491
              Bcc     0.0051     2.711     0.967     0.904  0.6963 -0.5806 -0.4221
 
              Baa    -0.0066    -0.885    -0.316    -0.295  0.7395  0.2356  0.6305
    16 C(13)  Bbb    -0.0036    -0.480    -0.171    -0.160 -0.3477  0.9358  0.0580
              Bcc     0.0102     1.365     0.487     0.455 -0.5764 -0.2621  0.7740
 
              Baa    -0.0061    -3.249    -1.159    -1.084  0.7366 -0.1484  0.6598
    17 H(1)   Bbb    -0.0027    -1.458    -0.520    -0.486  0.2335  0.9714 -0.0421
              Bcc     0.0088     4.707     1.680     1.570 -0.6347  0.1851  0.7502
 
              Baa    -0.0027    -1.465    -0.523    -0.489  0.1299  0.9564 -0.2616
    18 H(1)   Bbb    -0.0024    -1.282    -0.458    -0.428  0.9086 -0.0092  0.4175
              Bcc     0.0051     2.747     0.980     0.916 -0.3969  0.2920  0.8702
 
              Baa    -0.0020    -1.079    -0.385    -0.360  0.5276 -0.0933  0.8443
    19 H(1)   Bbb    -0.0016    -0.867    -0.309    -0.289  0.2279  0.9731 -0.0349
              Bcc     0.0036     1.947     0.695     0.649  0.8183 -0.2108 -0.5347
 
              Baa    -0.0069    -0.930    -0.332    -0.310 -0.1147 -0.6399  0.7599
    20 C(13)  Bbb     0.0025     0.341     0.122     0.114  0.4973  0.6252  0.6015
              Bcc     0.0044     0.590     0.210     0.197  0.8600 -0.4469 -0.2465
 
              Baa    -0.0023    -1.218    -0.434    -0.406  0.2227  0.2249  0.9486
    21 H(1)   Bbb     0.0003     0.181     0.064     0.060  0.7236  0.6139 -0.3154
              Bcc     0.0019     1.037     0.370     0.346 -0.6533  0.7567 -0.0260
 
              Baa    -0.0010    -0.519    -0.185    -0.173  0.0908  0.0464  0.9948
    22 H(1)   Bbb    -0.0005    -0.254    -0.091    -0.085  0.5744  0.8135 -0.0904
              Bcc     0.0014     0.773     0.276     0.258  0.8135 -0.5796 -0.0472
 
              Baa    -0.0049    -2.609    -0.931    -0.870 -0.4634 -0.1861  0.8664
    23 H(1)   Bbb    -0.0021    -1.134    -0.405    -0.378  0.5037  0.7491  0.4303
              Bcc     0.0070     3.743     1.336     1.249  0.7290 -0.6358  0.2534
 
              Baa    -0.0015    -0.815    -0.291    -0.272  0.4214 -0.3111  0.8518
    24 H(1)   Bbb     0.0001     0.048     0.017     0.016  0.4150  0.9013  0.1239
              Bcc     0.0014     0.767     0.274     0.256  0.8063 -0.3013 -0.5089
 
              Baa    -0.0041    -2.191    -0.782    -0.731  0.5014  0.0317  0.8646
    25 H(1)   Bbb    -0.0027    -1.426    -0.509    -0.476  0.4083  0.8724 -0.2688
              Bcc     0.0068     3.618     1.291     1.207  0.7628 -0.4878 -0.4245
 
              Baa    -0.0237    -3.181    -1.135    -1.061  0.6265  0.1014  0.7728
    26 C(13)  Bbb    -0.0160    -2.152    -0.768    -0.718  0.0832  0.9771 -0.1956
              Bcc     0.0397     5.334     1.903     1.779  0.7750 -0.1868 -0.6037
 
              Baa    -0.0032    -1.698    -0.606    -0.566  0.2905  0.2974  0.9095
    27 H(1)   Bbb     0.0008     0.450     0.161     0.150  0.8296  0.3954 -0.3942
              Bcc     0.0023     1.248     0.445     0.416 -0.4769  0.8690 -0.1318
 
              Baa    -0.0019    -0.261    -0.093    -0.087 -0.1638 -0.0801  0.9832
    28 C(13)  Bbb    -0.0010    -0.132    -0.047    -0.044 -0.1225  0.9906  0.0603
              Bcc     0.0029     0.393     0.140     0.131  0.9789  0.1105  0.1721
 
              Baa    -0.0383    -5.144    -1.836    -1.716  0.7076 -0.1642 -0.6873
    29 C(13)  Bbb     0.0182     2.442     0.871     0.814  0.0663  0.9838 -0.1668
              Bcc     0.0201     2.702     0.964     0.901  0.7035  0.0725  0.7070
 
              Baa    -0.0013    -0.674    -0.241    -0.225 -0.0228  0.9023 -0.4305
    30 H(1)   Bbb    -0.0008    -0.403    -0.144    -0.134 -0.0758  0.4278  0.9007
              Bcc     0.0020     1.077     0.384     0.359  0.9969  0.0532  0.0586
 
              Baa    -0.0046    -2.436    -0.869    -0.813 -0.1119 -0.1901  0.9754
    31 H(1)   Bbb    -0.0042    -2.232    -0.796    -0.744 -0.0528  0.9813  0.1852
              Bcc     0.0087     4.668     1.666     1.557  0.9923  0.0307  0.1199
 
              Baa    -0.0009    -0.119    -0.042    -0.040  0.1943  0.9271 -0.3205
    32 C(13)  Bbb    -0.0005    -0.072    -0.026    -0.024 -0.4075  0.3735  0.8333
              Bcc     0.0014     0.190     0.068     0.064  0.8923 -0.0313  0.4503
 
              Baa    -0.0007    -0.366    -0.131    -0.122 -0.3480 -0.5636  0.7492
    33 H(1)   Bbb    -0.0004    -0.232    -0.083    -0.077 -0.1997  0.8253  0.5282
              Bcc     0.0011     0.598     0.213     0.200  0.9160 -0.0342  0.3997
 
              Baa    -0.0004    -0.217    -0.078    -0.072 -0.0257 -0.1144  0.9931
    34 H(1)   Bbb    -0.0002    -0.117    -0.042    -0.039 -0.1628  0.9806  0.1088
              Bcc     0.0006     0.335     0.119     0.112  0.9863  0.1589  0.0438
 
              Baa    -0.0006    -0.324    -0.116    -0.108 -0.3678 -0.3367  0.8668
    35 H(1)   Bbb    -0.0002    -0.120    -0.043    -0.040 -0.1673  0.9409  0.2945
              Bcc     0.0008     0.444     0.158     0.148  0.9147  0.0366  0.4024
 
              Baa    -0.0016    -0.834    -0.298    -0.278 -0.2144  0.9670  0.1379
    36 H(1)   Bbb    -0.0010    -0.515    -0.184    -0.172 -0.4453 -0.2224  0.8673
              Bcc     0.0025     1.348     0.481     0.450  0.8693  0.1245  0.4783
 

 ---------------------------------------------------------------------------------

 Unable to Open any file for archive entry.
 1\1\GINC-P08R01N23\SP\UHF\6-31G(d)\C14H18O4(1-,2)\JL3566\26-Oct-2021\0
 \\# HF/6-31G* SCF=Tight\\<qmtool> simtype="Single point calculation" <
 /qmtool> Q1H-sp-HF\\-1,2\C,0,-0.2269999981,-1.5310000181,-0.6560000181
 \C,0,0.2840000093,-2.9119999409,-0.9819999933\C,0,-1.6100000143,-1.462
 0000124,-0.1850000024\O,0,-2.3350000381,-2.4830000401,-0.0659999996\C,
 0,-2.1180000305,-0.1299999952,0.1280000061\O,0,-3.4419999123,0.0240000
 002,0.5090000033\C,0,-1.3279999495,0.9879999757,0.0089999996\O,0,-1.83
 09999704,2.2200000286,0.3880000114\C,0,0.0309999995,0.9350000024,-0.49
 70000088\O,0,0.7220000029,2.0050001144,-0.6690000296\C,0,0.5389999747,
 -0.3939999938,-0.7929999828\C,0,1.9720000029,-0.4300000072,-1.25399994
 85\H,0,1.0260000229,-3.260999918,-0.2540000081\H,0,-0.5630000234,-3.60
 10000706,-0.9589999914\H,0,0.7549999952,-2.9479999542,-1.9700000286\C,
 0,-3.7509999275,-0.6349999905,1.7410000563\H,0,-3.5380001068,-1.702000
 0219,1.6699999571\H,0,-3.1830000877,-0.1840000004,2.5659999847\H,0,-4.
 8179998398,-0.4679999948,1.9090000391\C,0,-2.132999897,3.0239999294,-0
 .75\H,0,-2.9059998989,2.5460000038,-1.3650000095\H,0,-2.5150001049,3.9
 719998837,-0.3610000014\H,0,-1.2300000191,3.2000000477,-1.3400000334\H
 ,0,2.1019999981,-1.1749999523,-2.0529999733\H,0,2.2119998932,0.5500000
 119,-1.6720000505\C,0,2.888999939,-0.7829999924,-0.1150000021\H,0,2.88
 00001144,-1.8339999914,0.1790000051\C,0,3.7630000114,1.5349999666,0.32
 69999921\C,0,3.6710000038,0.0529999994,0.5820000172\H,0,4.6760001183,1
 .7840000391,-0.2329999954\H,0,2.8849999905,1.9040000439,-0.2070000023\
 C,0,4.5430002213,-0.4609999955,1.6979999542\H,0,4.4499998093,-1.546000
 0038,1.8140000105\H,0,5.5989999771,-0.2240000069,1.5119999647\H,0,4.27
 69999504,0.0109999999,2.6530001163\H,0,3.8210000992,2.0710000992,1.281
 9999456\\Version=ES64L-G16RevC.01\State=2-A\HF=-840.0323677\S2=0.89006
 5\S2-1=0.\S2A=0.763083\RMSD=7.138e-09\Dipole=1.1396759,-0.3170912,0.27
 85713\Quadrupole=-8.2948116,-4.2299956,12.5248072,-7.6767985,-0.23963,
 -1.9626068\PG=C01 [X(C14H18O4)]\\@
 The archive entry for this job was punched.


 "MATHEMATICS IS THE ART OF GIVING THE SAME NAME
 TO DIFFERENT THINGS."
                    - H. POINCARE
 Job cpu time:       0 days  0 hours  6 minutes 28.9 seconds.
 Elapsed time:       0 days  0 hours  1 minutes 38.2 seconds.
 File lengths (MBytes):  RWF=    148 Int=      0 D2E=      0 Chk=     12 Scr=      8
 Normal termination of Gaussian 16 at Tue Oct 26 23:27:50 2021.
