 Entering Gaussian System, Link 0=g16
 Initial command:
 /gpfs/loomis/apps/avx/software/Gaussian/16-C.01_AVX/g16/l1.exe "/home/jl3566/scratch60/g16/Gau-5618.inp" -scrdir="/home/jl3566/scratch60/g16/"
 Entering Link 1 = /gpfs/loomis/apps/avx/software/Gaussian/16-C.01_AVX/g16/l1.exe PID=      5619.
  
 Copyright (c) 1988-2019, Gaussian, Inc.  All Rights Reserved.
  
 This is part of the Gaussian(R) 16 program.  It is based on
 the Gaussian(R) 09 system (copyright 2009, Gaussian, Inc.),
 the Gaussian(R) 03 system (copyright 2003, Gaussian, Inc.),
 the Gaussian(R) 98 system (copyright 1998, Gaussian, Inc.),
 the Gaussian(R) 94 system (copyright 1995, Gaussian, Inc.),
 the Gaussian 92(TM) system (copyright 1992, Gaussian, Inc.),
 the Gaussian 90(TM) system (copyright 1990, Gaussian, Inc.),
 the Gaussian 88(TM) system (copyright 1988, Gaussian, Inc.),
 the Gaussian 86(TM) system (copyright 1986, Carnegie Mellon
 University), and the Gaussian 82(TM) system (copyright 1983,
 Carnegie Mellon University). Gaussian is a federally registered
 trademark of Gaussian, Inc.
  
 This software contains proprietary and confidential information,
 including trade secrets, belonging to Gaussian, Inc.
  
 This software is provided under written license and may be
 used, copied, transmitted, or stored only in accord with that
 written license.
  
 The following legend is applicable only to US Government
 contracts under FAR:
  
                    RESTRICTED RIGHTS LEGEND
  
 Use, reproduction and disclosure by the US Government is
 subject to restrictions as set forth in subparagraphs (a)
 and (c) of the Commercial Computer Software - Restricted
 Rights clause in FAR 52.227-19.
  
 Gaussian, Inc.
 340 Quinnipiac St., Bldg. 40, Wallingford CT 06492
  
  
 ---------------------------------------------------------------
 Warning -- This program may not be used in any manner that
 competes with the business of Gaussian, Inc. or will provide
 assistance to any competitor of Gaussian, Inc.  The licensee
 of this program is prohibited from giving any competitor of
 Gaussian, Inc. access to this program.  By using this program,
 the user acknowledges that Gaussian, Inc. is engaged in the
 business of creating and licensing software in the field of
 computational chemistry and represents and warrants to the
 licensee that it is not a competitor of Gaussian, Inc. and that
 it will not use this program in any manner prohibited above.
 ---------------------------------------------------------------
  

 Cite this work as:
 Gaussian 16, Revision C.01,
 M. J. Frisch, G. W. Trucks, H. B. Schlegel, G. E. Scuseria, 
 M. A. Robb, J. R. Cheeseman, G. Scalmani, V. Barone, 
 G. A. Petersson, H. Nakatsuji, X. Li, M. Caricato, A. V. Marenich, 
 J. Bloino, B. G. Janesko, R. Gomperts, B. Mennucci, H. P. Hratchian, 
 J. V. Ortiz, A. F. Izmaylov, J. L. Sonnenberg, D. Williams-Young, 
 F. Ding, F. Lipparini, F. Egidi, J. Goings, B. Peng, A. Petrone, 
 T. Henderson, D. Ranasinghe, V. G. Zakrzewski, J. Gao, N. Rega, 
 G. Zheng, W. Liang, M. Hada, M. Ehara, K. Toyota, R. Fukuda, 
 J. Hasegawa, M. Ishida, T. Nakajima, Y. Honda, O. Kitao, H. Nakai, 
 T. Vreven, K. Throssell, J. A. Montgomery, Jr., J. E. Peralta, 
 F. Ogliaro, M. J. Bearpark, J. J. Heyd, E. N. Brothers, K. N. Kudin, 
 V. N. Staroverov, T. A. Keith, R. Kobayashi, J. Normand, 
 K. Raghavachari, A. P. Rendell, J. C. Burant, S. S. Iyengar, 
 J. Tomasi, M. Cossi, J. M. Millam, M. Klene, C. Adamo, R. Cammi, 
 J. W. Ochterski, R. L. Martin, K. Morokuma, O. Farkas, 
 J. B. Foresman, and D. J. Fox, Gaussian, Inc., Wallingford CT, 2019.
 
 ******************************************
 Gaussian 16:  ES64L-G16RevC.01  3-Jul-2019
                26-Oct-2021 
 ******************************************
 %chk=Q1H-ACC-O2-120a.chk
 %nproc=4
 Will use up to    4 processors via shared memory.
 %mem=4GB
 --------------------------------------------------------------
 # HF/6-31G* Opt=(Z-matrix,MaxCycles=100) Geom=PrintInputOrient
 --------------------------------------------------------------
 1/6=100,10=7,18=40,38=1/1,3;
 2/9=2000,12=2,17=6,18=5,29=3,40=1/2;
 3/5=1,6=6,7=1,11=9,25=1,30=1,71=1/1,2,3;
 4//1;
 5/5=2,38=5/2;
 6/7=2,8=2,9=2,10=2,28=1/1;
 7/29=1/1,2,3,16;
 1/6=100,10=7,18=40/3(2);
 2/9=2000,29=3/2;
 99//99;
 2/9=2000,29=3/2;
 3/5=1,6=6,7=1,11=9,25=1,30=1,71=1/1,2,3;
 4/5=5,16=3,69=1/1;
 5/5=2,38=5/2;
 7//1,2,3,16;
 1/6=100,18=40/3(-5);
 2/9=2000,29=3/2;
 6/7=2,8=2,9=2,10=2,19=2,28=1/1;
 99/9=1/99;
 ------------------------------------------------------------------
 <qmtool> simtype="Geometry optimization" </qmtool> Q1H-ACC-O2-120a
 ------------------------------------------------------------------
 Symbolic Z-matrix:
 Charge = -1 Multiplicity = 2
 C1                   -0.227    -1.531    -0.656 
 C2                    0.284    -2.912    -0.982 
 C3                   -1.61     -1.462    -0.185 
 O4                   -2.335    -2.483    -0.066 
 C5                   -2.118    -0.13      0.128 
 O6                   -3.442     0.024     0.509 
 C7                   -1.328     0.988     0.009 
 O8                   -1.831     2.22      0.388 
 C9                    0.031     0.935    -0.497 
 O10                   0.722     2.005    -0.669 
 C11                   0.539    -0.394    -0.793 
 C12                   1.972    -0.43     -1.254 
 H13                   1.026    -3.261    -0.254 
 H14                  -0.563    -3.601    -0.959 
 H15                   0.755    -2.948    -1.97 
 C16                  -3.751    -0.635     1.741 
 H17                  -3.538    -1.702     1.67 
 H18                  -3.183    -0.184     2.566 
 H19                  -4.818    -0.468     1.909 
 C20                  -2.133     3.024    -0.75 
 H21                  -2.906     2.546    -1.365 
 H22                  -2.515     3.972    -0.361 
 H23                  -1.23      3.2      -1.34 
 H24                   2.102    -1.175    -2.053 
 H25                   2.212     0.55     -1.672 
 C26                   2.889    -0.783    -0.115 
 H27                   2.88     -1.834     0.179 
 C28                   3.763     1.535     0.327 
 C29                   3.671     0.053     0.582 
 H30                   4.676     1.784    -0.233 
 H31                   2.885     1.904    -0.207 
 C32                   4.543    -0.461     1.698 
 H33                   4.45     -1.546     1.814 
 H34                   5.599    -0.224     1.512 
 H35                   4.277     0.011     2.653 
 H36                   3.821     2.071     1.282 
 H1w                  O4   rAH      C3    120.     C5    180.     0
 x                    H1w   1.       O4    90.      C3    0.       0
 Ow                   H1w   0.9527   x     90.      O4    180.     0
 H2w                  Ow    0.9527   H1w   104.52   x    dih      0
       Variables:
  rAH                   2.                       
  dih                   0.                       
 

 GradGradGradGradGradGradGradGradGradGradGradGradGradGradGradGradGradGrad
 Berny optimization.
 Initialization pass.
                       ----------------------------
                       !    Initial Parameters    !
                       ! (Angstroms and Degrees)  !
 ----------------------                            ----------------------
 !      Name          Value   Derivative information (Atomic Units)     !
 ------------------------------------------------------------------------
 !       rAH         2.0      estimate D2E/DX2                          !
 !       dih         0.0      estimate D2E/DX2                          !
 ------------------------------------------------------------------------
 Trust Radius=3.00D-01 FncErr=1.00D-07 GrdErr=1.00D-07 EigMax=2.50D+02 EigMin=1.00D-04
 Number of steps in this run=    100 maximum allowed number of steps=    100.
 GradGradGradGradGradGradGradGradGradGradGradGradGradGradGradGradGradGrad

 ---------------------------------------------------------------------------------------------------
                            Z-MATRIX (ANGSTROMS AND DEGREES)
   CD    Cent   Atom    N1       Length/X        N2       Alpha/Y        N3        Beta/Z          J
 ---------------------------------------------------------------------------------------------------
      1      1  C        0  -0.227000         -1.531000         -0.656000
      2      2  C        0   0.284000         -2.912000         -0.982000
      3      3  C        0  -1.610000         -1.462000         -0.185000
      4      4  O        0  -2.335000         -2.483000         -0.066000
      5      5  C        0  -2.118000         -0.130000          0.128000
      6      6  O        0  -3.442000          0.024000          0.509000
      7      7  C        0  -1.328000          0.988000          0.009000
      8      8  O        0  -1.831000          2.220000          0.388000
      9      9  C        0   0.031000          0.935000         -0.497000
     10     10  O        0   0.722000          2.005000         -0.669000
     11     11  C        0   0.539000         -0.394000         -0.793000
     12     12  C        0   1.972000         -0.430000         -1.254000
     13     13  H        0   1.026000         -3.261000         -0.254000
     14     14  H        0  -0.563000         -3.601000         -0.959000
     15     15  H        0   0.755000         -2.948000         -1.970000
     16     16  C        0  -3.751000         -0.635000          1.741000
     17     17  H        0  -3.538000         -1.702000          1.670000
     18     18  H        0  -3.183000         -0.184000          2.566000
     19     19  H        0  -4.818000         -0.468000          1.909000
     20     20  C        0  -2.133000          3.024000         -0.750000
     21     21  H        0  -2.906000          2.546000         -1.365000
     22     22  H        0  -2.515000          3.972000         -0.361000
     23     23  H        0  -1.230000          3.200000         -1.340000
     24     24  H        0   2.102000         -1.175000         -2.053000
     25     25  H        0   2.212000          0.550000         -1.672000
     26     26  C        0   2.889000         -0.783000         -0.115000
     27     27  H        0   2.880000         -1.834000          0.179000
     28     28  C        0   3.763000          1.535000          0.327000
     29     29  C        0   3.671000          0.053000          0.582000
     30     30  H        0   4.676000          1.784000         -0.233000
     31     31  H        0   2.885000          1.904000         -0.207000
     32     32  C        0   4.543000         -0.461000          1.698000
     33     33  H        0   4.450000         -1.546000          1.814000
     34     34  H        0   5.599000         -0.224000          1.512000
     35     35  H        0   4.277000          0.011000          2.653000
     36     36  H        0   3.821000          2.071000          1.282000
     37     37  H        4   2.000000(    36)      3  120.000(    74)      5  180.000(   111)      0
     38         X       37   1.000000(    37)      4   90.000(    75)      3    0.000(   112)      0
     39     38  O       37   0.952700(    38)     38   90.000(    76)      4  180.000(   113)      0
     40     39  H       39   0.952700(    39)     37  104.520(    77)     38    0.000(   114)      0
 ---------------------------------------------------------------------------------------------------
                         Z-Matrix orientation:                         
 ---------------------------------------------------------------------
 Center     Atomic      Atomic             Coordinates (Angstroms)
 Number     Number       Type             X           Y           Z
 ---------------------------------------------------------------------
      1          6           0       -0.227000   -1.531000   -0.656000
      2          6           0        0.284000   -2.912000   -0.982000
      3          6           0       -1.610000   -1.462000   -0.185000
      4          8           0       -2.335000   -2.483000   -0.066000
      5          6           0       -2.118000   -0.130000    0.128000
      6          8           0       -3.442000    0.024000    0.509000
      7          6           0       -1.328000    0.988000    0.009000
      8          8           0       -1.831000    2.220000    0.388000
      9          6           0        0.031000    0.935000   -0.497000
     10          8           0        0.722000    2.005000   -0.669000
     11          6           0        0.539000   -0.394000   -0.793000
     12          6           0        1.972000   -0.430000   -1.254000
     13          1           0        1.026000   -3.261000   -0.254000
     14          1           0       -0.563000   -3.601000   -0.959000
     15          1           0        0.755000   -2.948000   -1.970000
     16          6           0       -3.751000   -0.635000    1.741000
     17          1           0       -3.538000   -1.702000    1.670000
     18          1           0       -3.183000   -0.184000    2.566000
     19          1           0       -4.818000   -0.468000    1.909000
     20          6           0       -2.133000    3.024000   -0.750000
     21          1           0       -2.906000    2.546000   -1.365000
     22          1           0       -2.515000    3.972000   -0.361000
     23          1           0       -1.230000    3.200000   -1.340000
     24          1           0        2.102000   -1.175000   -2.053000
     25          1           0        2.212000    0.550000   -1.672000
     26          6           0        2.889000   -0.783000   -0.115000
     27          1           0        2.880000   -1.834000    0.179000
     28          6           0        3.763000    1.535000    0.327000
     29          6           0        3.671000    0.053000    0.582000
     30          1           0        4.676000    1.784000   -0.233000
     31          1           0        2.885000    1.904000   -0.207000
     32          6           0        4.543000   -0.461000    1.698000
     33          1           0        4.450000   -1.546000    1.814000
     34          1           0        5.599000   -0.224000    1.512000
     35          1           0        4.277000    0.011000    2.653000
     36          1           0        3.821000    2.071000    1.282000
     37          1           0       -1.598130   -4.289512   -0.505931
     38         -1           0       -0.719876   -3.873745   -0.742168
     39          8           0       -1.247122   -5.150043   -0.715491
     40          1           0       -0.349130   -4.982345   -0.985907
 ---------------------------------------------------------------------
                    Distance matrix (angstroms):
                    1          2          3          4          5
     1  C    0.000000
     2  C    1.508164   0.000000
     3  C    1.462632   2.514944   0.000000
     4  O    2.387063   2.807536   1.257866   0.000000
     5  C    2.480592   3.839431   1.459540   2.370935   0.000000
     6  O    3.756524   4.972550   2.458873   2.800201   1.386309
     7  C    2.828389   4.334815   2.473795   3.614902   1.374112
     8  O    4.211028   5.717303   3.732867   4.751667   2.381695
     9  C    2.484552   3.885697   2.921615   4.179287   2.478518
    10  O    3.661157   4.946383   4.206254   5.463607   3.641296
    11  C    1.377786   2.537926   2.475579   3.626614   2.824462
    12  C    2.530890   3.013910   3.877952   4.916951   4.327589
    13  H    2.173594   1.096517   3.192124   3.454989   4.453518
    14  H    2.118869   1.092089   2.504118   2.277577   3.955684
    15  H    2.167674   1.095117   3.314762   3.659172   4.538376
    16  C    4.355112   5.374075   2.996212   2.947102   2.350209
    17  H    4.049968   4.806754   2.686226   2.251858   2.620181
    18  H    4.575328   5.661305   3.416960   3.596099   2.661012
    19  H    5.365303   6.353064   3.957794   3.758476   3.252108
    20  C    4.938593   6.413408   4.551588   5.552991   3.273962
    21  H    4.929670   6.333447   4.374481   5.225350   3.164012
    22  H    5.966991   7.457177   5.511656   6.464244   4.150076
    23  H    4.884284   6.306893   4.817953   5.927950   3.745994
    24  H    2.739085   2.733008   4.165422   5.034481   4.863865
    25  H    3.363263   4.022279   4.568041   5.696800   4.738280
    26  C    3.249868   3.474242   4.550488   5.493867   5.055245
    27  H    3.231483   3.041253   4.520064   5.260936   5.280741
    28  C    5.127060   5.795924   6.173596   7.313301   6.115389
    29  C    4.385898   4.765406   5.547294   6.551583   5.809658
    30  H    5.933596   6.473259   7.074787   8.209099   7.067684
    31  H    4.656755   5.528081   5.615645   6.820121   5.411043
    32  C    5.425783   5.597221   6.512074   7.382890   6.851524
    33  H    5.289183   5.199916   6.381744   7.102717   6.927213
    34  H    6.352224   6.457136   7.508804   8.398900   7.840688
    35  H    5.797694   6.140131   6.699309   7.571759   6.876884
    36  H    5.754698   6.516621   6.643037   7.775111   6.438000
    37  H    3.084138   2.380461   2.845691   2.000000   4.239536
    38  X    2.395581   1.410759   2.630451   2.236068   4.089935
    39  O    3.760540   2.724739   3.743630   2.952700   5.164372
    40  H    3.469227   2.164994   3.824143   3.322143   5.283459
                    6          7          8          9         10
     6  O    0.000000
     7  C    2.376614   0.000000
     8  O    2.726239   1.383645   0.000000
     9  C    3.728765   1.451112   2.429299   0.000000
    10  O    4.759300   2.386729   2.771513   1.285288   0.000000
    11  C    4.209310   2.457400   3.720841   1.453245   2.409163
    12  C    5.711889   3.807347   4.917466   2.490734   2.798920
    13  H    5.597894   4.864616   6.214175   4.319200   5.291068
    14  H    4.856366   4.751965   6.107886   4.597997   5.758695
    15  H    5.709031   4.873133   6.241457   4.215637   5.121123
    16  C    1.430939   3.391885   3.697030   4.666591   5.725856
    17  H    2.082358   3.857346   4.465362   4.938362   6.112313
    18  H    2.083649   3.369400   3.514371   4.578638   5.523221
    19  H    2.023719   4.232025   4.296621   5.591963   6.591920
    20  C    3.506931   2.317197   1.425715   3.018414   3.032482
    21  H    3.187422   2.608702   2.082045   3.460450   3.733561
    22  H    4.147642   3.232665   2.024441   3.965348   3.800279
    23  H    4.289373   2.592749   2.075472   2.725985   2.385072
    24  H    6.223936   4.549210   5.740470   3.340999   3.732594
    25  H    6.082857   3.943248   4.835116   2.507112   2.311522
    26  C    6.412658   4.575468   5.616887   3.356428   3.574318
    27  H    6.597632   5.069502   6.218691   4.030030   4.484862
    28  C    7.363985   5.130167   5.636114   3.868695   3.234285
    29  C    7.113434   5.117866   5.916547   3.897661   3.751254
    30  H    8.339670   6.061369   6.551091   4.729326   3.984100
    31  H    6.639125   4.316837   4.763878   3.027933   2.214094
    32  C    8.087594   6.278612   7.037879   5.208165   5.126781
    33  H    8.151784   6.562352   7.461045   5.569887   5.716019
    34  H    9.099846   7.191056   7.901988   6.031748   5.788811
    35  H    8.011234   6.273858   6.878777   5.367010   5.258303
    36  H    7.585440   5.413467   5.724207   4.338138   3.662589
    37  H    4.799617   5.309449   6.574731   5.472629   6.710475
    38  X    4.916075   4.956877   6.296476   4.873187   6.053429
    39  O    5.752181   6.181182   7.475035   6.221663   7.421203
    40  H    6.071580   6.131317   7.480463   5.949664   7.076068
                   11         12         13         14         15
    11  C    0.000000
    12  C    1.505758   0.000000
    13  H    2.957597   3.147932   0.000000
    14  H    3.395116   4.070441   1.771312   0.000000
    15  H    2.820443   2.886879   1.765238   1.784840   0.000000
    16  C    4.988320   6.462567   5.804794   5.123524   6.278975
    17  H    4.939551   6.366150   5.192529   4.400962   5.764717
    18  H    5.017994   6.420821   5.927564   5.564703   6.612325
    19  H    6.000311   7.490668   6.828745   6.012166   7.228787
    20  C    4.338681   5.388428   7.051703   6.811696   6.744904
    21  H    4.564954   5.715224   7.100436   6.590910   6.629704
    22  H    5.345605   6.348876   8.053969   7.843356   7.821009
    23  H    4.042945   4.841188   6.929174   6.844242   6.491150
    24  H    2.154189   1.100148   2.957291   3.766237   2.228189
    25  H    2.112512   1.092119   4.235687   5.043788   3.801007
    26  C    2.476591   1.504267   3.103317   4.535390   3.561208
    27  H    2.915247   2.202083   2.379314   4.033805   3.220997
    28  C    3.920410   3.093294   5.552508   6.837146   5.866989
    29  C    3.449617   2.547702   4.321749   5.801134   4.901200
    30  H    4.708721   3.640859   6.226955   7.548008   6.386175
    31  H    3.335853   2.716125   5.489564   6.539055   5.584530
    32  C    4.716099   3.914755   4.900979   6.556713   5.829952
    33  H    4.839367   4.098605   4.352198   6.086273   5.471497
    34  H    5.562870   4.565996   5.766667   7.448504   6.558112
    35  H    5.100155   4.557648   5.452122   7.036952   6.521679
    36  H    4.599280   4.013116   6.213014   7.510867   6.720582
    37  H    4.452499   5.310487   2.829729   1.323184   3.079022
    38  X    3.700808   4.400858   1.913596   0.382121   2.130689
    39  O    5.080963   5.738602   2.991412   1.710805   3.229749
    40  H    4.677488   5.116968   2.321573   1.398062   2.515174
                   16         17         18         19         20
    16  C    0.000000
    17  H    1.090366   0.000000
    18  H    1.098476   1.798100   0.000000
    19  H    1.092978   1.793956   1.784805   0.000000
    20  C    4.712885   5.492313   4.731767   5.145247   0.000000
    21  H    4.525486   5.258912   4.793995   4.843451   1.097378
    22  H    5.212538   6.112754   5.126976   5.492750   1.093595
    23  H    5.527678   6.198110   5.524717   6.073217   1.092925
    24  H    6.995973   6.778500   7.088615   8.005229   6.104476
    25  H    6.972099   7.021607   6.899668   7.954922   5.084268
    26  C    6.896103   6.733284   6.664514   7.974562   6.333795
    27  H    6.917196   6.590238   6.721625   8.007375   7.042256
    28  C    7.947861   8.098544   7.497666   8.952558   6.175748
    29  C    7.543388   7.498897   7.139310   8.607874   6.654884
    30  H    8.986800   9.123782   8.571541   9.989780   6.940272
    31  H    7.367341   7.601401   6.990701   8.333069   5.170065
    32  C    8.295937   8.175783   7.779539   9.363380   7.918769
    33  H    8.251766   7.990821   7.789945   9.330966   8.413969
    34  H    9.361830   9.257117   8.845114  10.427417   8.686194
    35  H    8.105421   8.060700   7.463055   9.137943   7.857905
    36  H    8.054086   8.278947   7.469250   9.026183   6.362967
    37  H    4.799896   3.897818   5.366917   5.550081   7.337105
    38  X    5.083631   4.298471   5.534001   5.951673   7.041013
    39  O    5.717462   4.777834   6.259185   6.446755   8.221980
    40  H    6.156959   5.289933   6.608402   6.980730   8.206059
                   21         22         23         24         25
    21  H    0.000000
    22  H    1.787281   0.000000
    23  H    1.799254   1.790433   0.000000
    24  H    6.276882   7.118368   5.545378   0.000000
    25  H    5.502017   5.981081   4.356614   1.769996   0.000000
    26  C    6.799027   7.202344   5.859273   2.128116   2.158580
    27  H    7.419308   7.944008   6.673876   2.453852   3.091259
    28  C    6.954175   6.769461   5.520975   3.970821   2.715111
    29  C    7.298136   7.383387   6.133310   3.303478   2.730606
    30  H    7.703817   7.517593   6.173438   4.323605   3.108822
    31  H    5.940438   5.784491   4.460553   3.674377   2.105343
    32  C    8.597187   8.585240   7.480635   4.531918   4.220496
    33  H    8.997846   9.148233   8.045783   4.539211   4.642635
    34  H    9.396013   9.324781   8.154319   5.083565   4.712611
    35  H    8.611971   8.420510   7.512711   5.318238   4.822901
    36  H    7.244637   6.816021   5.801907   4.961220   3.691672
    37  H    7.012328   8.313497   7.544798   5.077851   6.268786
    38  X    6.810300   8.057510   7.117268   4.118797   5.387950
    39  O    7.899546   9.216553   8.373382   5.367171   6.735795
    40  H    7.959728   9.233731   8.237238   4.652161   6.134896
                   26         27         28         29         30
    26  C    0.000000
    27  H    1.091384   0.000000
    28  C    2.516419   3.485937   0.000000
    29  C    1.340235   2.085392   1.506590   0.000000
    30  H    3.129981   4.060207   1.099623   2.161160   0.000000
    31  H    2.688578   3.757880   1.091880   2.160213   1.795204
    32  C    2.475150   2.637813   2.544024   1.506664   2.964199
    33  H    2.596138   2.284966   3.489369   2.163669   3.915378
    34  H    3.209939   3.429570   2.805210   2.158428   2.815851
    35  H    3.196687   3.387670   2.827905   2.158250   3.410532
    36  H    3.311427   4.165467   1.096670   2.141220   1.763128
    37  H    5.708134   5.152894   7.959926   6.914097   8.736518
    38  X    4.792706   4.238894   7.105901   6.037594   7.834846
    39  O    6.044764   5.369302   8.418903   7.276199   9.132203
    40  H    5.373869   4.657936   7.817232   6.631325   8.461810
                   31         32         33         34         35
    31  H    0.000000
    32  C    3.459944   0.000000
    33  H    4.293736   1.095139   0.000000
    34  H    3.853458   1.098135   1.777383   0.000000
    35  H    3.701448   1.097982   1.777104   1.762042   0.000000
    36  H    1.766665   2.665589   3.709630   2.912252   2.516183
    37  H    7.651628   7.564939   7.034828   8.508767   7.936649
    38  X    6.831096   6.730462   6.219325   7.637415   7.182422
    39  O    8.191003   7.831832   7.200323   8.723360   8.276414
    40  H    7.647747   7.181842   6.532962   8.016336   7.718563
                   36         37         38         39         40
    36  H    0.000000
    37  H    8.545161   0.000000
    38  X    7.749633   1.000000   0.000000
    39  O    9.045403   0.952700   1.381172   0.000000
    40  H    8.501945   1.506783   1.194092   0.952700   0.000000
 Stoichiometry    C14H20O5(1-,2)
 Framework group  C1[X(C14H20O5)]
 Deg. of freedom   111
 Full point group                 C1      NOp   1
 Largest Abelian subgroup         C1      NOp   1
 Largest concise Abelian subgroup C1      NOp   1
                         Standard orientation:                         
 ---------------------------------------------------------------------
 Center     Atomic      Atomic             Coordinates (Angstroms)
 Number     Number       Type             X           Y           Z
 ---------------------------------------------------------------------
      1          6           0        0.365043    1.172314   -0.523292
      2          6           0        0.117136    2.641486   -0.757033
      3          6           0        1.704634    0.823054   -0.051269
      4          8           0        2.599718    1.685760    0.140537
      5          6           0        1.958650   -0.596635    0.172823
      6          8           0        3.226433   -1.012671    0.548978
      7          6           0        0.982148   -1.542751   -0.025908
      8          8           0        1.248148   -2.867770    0.270813
      9          6           0       -0.336124   -1.211224   -0.533820
     10          8           0       -1.205698   -2.124666   -0.781672
     11          6           0       -0.590973    0.204398   -0.741156
     12          6           0       -1.985859    0.529670   -1.205695
     13          1           0       -0.562148    3.070209   -0.010629
     14          1           0        1.073979    3.162668   -0.683003
     15          1           0       -0.322619    2.827373   -1.742600
     16          6           0        3.628013   -0.503376    1.824492
     17          1           0        3.612173    0.586875    1.825249
     18          1           0        2.973917   -0.897566    2.614064
     19          1           0        4.644360   -0.871559    1.985992
     20          6           0        1.419697   -3.636197   -0.917780
     21          1           0        2.276665   -3.266509   -1.494992
     22          1           0        1.617742   -4.661291   -0.592344
     23          1           0        0.510026   -3.606401   -1.522838
     24          1           0       -1.965643    1.337025   -1.952753
     25          1           0       -2.391441   -0.360876   -1.690622
     26          6           0       -2.843582    0.966856   -0.049841
     27          1           0       -2.650245    1.977093    0.315070
     28          6           0       -4.128726   -1.178607    0.229010
     29          6           0       -3.775369    0.242094    0.584763
     30          1           0       -5.061911   -1.220613   -0.351138
     31          1           0       -3.322629   -1.664400   -0.324538
     32          6           0       -4.559407    0.830631    1.728854
     33          1           0       -4.274273    1.870779    1.918909
     34          1           0       -5.637482    0.801587    1.521946
     35          1           0       -4.399319    0.256223    2.650805
     36          1           0       -4.298819   -1.757144    1.145005
     37          1           0        2.208369    3.620891   -0.179013
     38          8           0        2.021949    4.542691   -0.331231
     39          1           0        1.113214    4.558613   -0.616860
 ---------------------------------------------------------------------
 Rotational constants (GHZ):           0.3964621           0.2758774           0.1854976
 Standard basis: 6-31G(d) (6D, 7F)
 There are   325 symmetry adapted cartesian basis functions of A   symmetry.
 There are   325 symmetry adapted basis functions of A   symmetry.
   325 basis functions,   612 primitive gaussians,   325 cartesian basis functions
    73 alpha electrons       72 beta electrons
       nuclear repulsion energy      1503.0863999506 Hartrees.
 NAtoms=   39 NActive=   39 NUniq=   39 SFac= 1.00D+00 NAtFMM=   60 NAOKFM=F Big=F
 Integral buffers will be    131072 words long.
 Raffenetti 2 integral format.
 Two-electron integral symmetry is turned on.
 One-electron integrals computed using PRISM.
 NBasis=   325 RedAO= T EigKep=  2.98D-04  NBF=   325
 NBsUse=   325 1.00D-06 EigRej= -1.00D+00 NBFU=   325
 ExpMin= 1.61D-01 ExpMax= 5.48D+03 ExpMxC= 8.25D+02 IAcc=3 IRadAn=         5 AccDes= 0.00D+00
 Harris functional with IExCor=  205 and IRadAn=       5 diagonalized for initial guess.
 HarFok:  IExCor=  205 AccDes= 0.00D+00 IRadAn=         5 IDoV= 1 UseB2=F ITyADJ=14
 ICtDFT=  3500011 ScaDFX=  1.000000  1.000000  1.000000  1.000000
 FoFCou: FMM=F IPFlag=           0 FMFlag=      100000 FMFlg1=           0
         NFxFlg=           0 DoJE=T BraDBF=F KetDBF=T FulRan=T
         wScrn=  0.000000 ICntrl=       500 IOpCl=  0 I1Cent=   200000004 NGrid=           0
         NMat0=    1 NMatS0=      1 NMatT0=    0 NMatD0=    1 NMtDS0=    0 NMtDT0=    0
 Petite list used in FoFCou.
 Initial guess <Sx>= 0.0000 <Sy>= 0.0000 <Sz>= 0.5000 <S**2>= 0.7500 S= 0.5000
 Requested convergence on RMS density matrix=1.00D-08 within 128 cycles.
 Requested convergence on MAX density matrix=1.00D-06.
 Requested convergence on             energy=1.00D-06.
 No special actions if energy rises.
 Integral accuracy reduced to 1.0D-05 until final iterations.
 Initial convergence to 1.0D-05 achieved.  Increase integral accuracy.
 Restarting incremental Fock formation.
 SCF Done:  E(UHF) =  -916.015862305     A.U. after   48 cycles
            NFock= 48  Conv=0.37D-08     -V/T= 2.0018
 <Sx>= 0.0000 <Sy>= 0.0000 <Sz>= 0.5000 <S**2>= 0.8692 S= 0.5579
 <L.S>=  0.00000000000    
 Annihilation of the first spin contaminant:
 S**2 before annihilation     0.8692,   after     0.7583

 **********************************************************************

            Population analysis using the SCF Density.

 **********************************************************************

 Orbital symmetries:
 Alpha Orbitals:
       Occupied  (A) (A) (A) (A) (A) (A) (A) (A) (A) (A) (A) (A)
                 (A) (A) (A) (A) (A) (A) (A) (A) (A) (A) (A) (A)
                 (A) (A) (A) (A) (A) (A) (A) (A) (A) (A) (A) (A)
                 (A) (A) (A) (A) (A) (A) (A) (A) (A) (A) (A) (A)
                 (A) (A) (A) (A) (A) (A) (A) (A) (A) (A) (A) (A)
                 (A) (A) (A) (A) (A) (A) (A) (A) (A) (A) (A) (A)
                 (A)
       Virtual   (A) (A) (A) (A) (A) (A) (A) (A) (A) (A) (A) (A)
                 (A) (A) (A) (A) (A) (A) (A) (A) (A) (A) (A) (A)
                 (A) (A) (A) (A) (A) (A) (A) (A) (A) (A) (A) (A)
                 (A) (A) (A) (A) (A) (A) (A) (A) (A) (A) (A) (A)
                 (A) (A) (A) (A) (A) (A) (A) (A) (A) (A) (A) (A)
                 (A) (A) (A) (A) (A) (A) (A) (A) (A) (A) (A) (A)
                 (A) (A) (A) (A) (A) (A) (A) (A) (A) (A) (A) (A)
                 (A) (A) (A) (A) (A) (A) (A) (A) (A) (A) (A) (A)
                 (A) (A) (A) (A) (A) (A) (A) (A) (A) (A) (A) (A)
                 (A) (A) (A) (A) (A) (A) (A) (A) (A) (A) (A) (A)
                 (A) (A) (A) (A) (A) (A) (A) (A) (A) (A) (A) (A)
                 (A) (A) (A) (A) (A) (A) (A) (A) (A) (A) (A) (A)
                 (A) (A) (A) (A) (A) (A) (A) (A) (A) (A) (A) (A)
                 (A) (A) (A) (A) (A) (A) (A) (A) (A) (A) (A) (A)
                 (A) (A) (A) (A) (A) (A) (A) (A) (A) (A) (A) (A)
                 (A) (A) (A) (A) (A) (A) (A) (A) (A) (A) (A) (A)
                 (A) (A) (A) (A) (A) (A) (A) (A) (A) (A) (A) (A)
                 (A) (A) (A) (A) (A) (A) (A) (A) (A) (A) (A) (A)
                 (A) (A) (A) (A) (A) (A) (A) (A) (A) (A) (A) (A)
                 (A) (A) (A) (A) (A) (A) (A) (A) (A) (A) (A) (A)
                 (A) (A) (A) (A) (A) (A) (A) (A) (A) (A) (A) (A)
 Beta  Orbitals:
       Occupied  (A) (A) (A) (A) (A) (A) (A) (A) (A) (A) (A) (A)
                 (A) (A) (A) (A) (A) (A) (A) (A) (A) (A) (A) (A)
                 (A) (A) (A) (A) (A) (A) (A) (A) (A) (A) (A) (A)
                 (A) (A) (A) (A) (A) (A) (A) (A) (A) (A) (A) (A)
                 (A) (A) (A) (A) (A) (A) (A) (A) (A) (A) (A) (A)
                 (A) (A) (A) (A) (A) (A) (A) (A) (A) (A) (A) (A)
       Virtual   (A) (A) (A) (A) (A) (A) (A) (A) (A) (A) (A) (A)
                 (A) (A) (A) (A) (A) (A) (A) (A) (A) (A) (A) (A)
                 (A) (A) (A) (A) (A) (A) (A) (A) (A) (A) (A) (A)
                 (A) (A) (A) (A) (A) (A) (A) (A) (A) (A) (A) (A)
                 (A) (A) (A) (A) (A) (A) (A) (A) (A) (A) (A) (A)
                 (A) (A) (A) (A) (A) (A) (A) (A) (A) (A) (A) (A)
                 (A) (A) (A) (A) (A) (A) (A) (A) (A) (A) (A) (A)
                 (A) (A) (A) (A) (A) (A) (A) (A) (A) (A) (A) (A)
                 (A) (A) (A) (A) (A) (A) (A) (A) (A) (A) (A) (A)
                 (A) (A) (A) (A) (A) (A) (A) (A) (A) (A) (A) (A)
                 (A) (A) (A) (A) (A) (A) (A) (A) (A) (A) (A) (A)
                 (A) (A) (A) (A) (A) (A) (A) (A) (A) (A) (A) (A)
                 (A) (A) (A) (A) (A) (A) (A) (A) (A) (A) (A) (A)
                 (A) (A) (A) (A) (A) (A) (A) (A) (A) (A) (A) (A)
                 (A) (A) (A) (A) (A) (A) (A) (A) (A) (A) (A) (A)
                 (A) (A) (A) (A) (A) (A) (A) (A) (A) (A) (A) (A)
                 (A) (A) (A) (A) (A) (A) (A) (A) (A) (A) (A) (A)
                 (A) (A) (A) (A) (A) (A) (A) (A) (A) (A) (A) (A)
                 (A) (A) (A) (A) (A) (A) (A) (A) (A) (A) (A) (A)
                 (A) (A) (A) (A) (A) (A) (A) (A) (A) (A) (A) (A)
                 (A) (A) (A) (A) (A) (A) (A) (A) (A) (A) (A) (A)
                 (A)
 The electronic state is 2-A.
 Alpha  occ. eigenvalues --  -20.44357 -20.44233 -20.41817 -20.40490 -20.37459
 Alpha  occ. eigenvalues --  -11.15535 -11.15291 -11.15272 -11.14971 -11.14748
 Alpha  occ. eigenvalues --  -11.14334 -11.12806 -11.12574 -11.11307 -11.10649
 Alpha  occ. eigenvalues --  -11.10570 -11.10514 -11.09797 -11.09446  -1.26826
 Alpha  occ. eigenvalues --   -1.24528  -1.22471  -1.20903  -1.19990  -1.00460
 Alpha  occ. eigenvalues --   -0.98005  -0.91740  -0.88705  -0.83724  -0.83099
 Alpha  occ. eigenvalues --   -0.82235  -0.79305  -0.76863  -0.74552  -0.65197
 Alpha  occ. eigenvalues --   -0.64570  -0.60024  -0.58747  -0.57875  -0.54417
 Alpha  occ. eigenvalues --   -0.53217  -0.52306  -0.51471  -0.51387  -0.49971
 Alpha  occ. eigenvalues --   -0.49221  -0.48902  -0.48528  -0.47379  -0.46366
 Alpha  occ. eigenvalues --   -0.46034  -0.45329  -0.43927  -0.43013  -0.42492
 Alpha  occ. eigenvalues --   -0.41694  -0.41265  -0.40159  -0.39904  -0.39083
 Alpha  occ. eigenvalues --   -0.38212  -0.37555  -0.36935  -0.36013  -0.35488
 Alpha  occ. eigenvalues --   -0.33036  -0.32318  -0.28358  -0.27693  -0.26038
 Alpha  occ. eigenvalues --   -0.22445  -0.18922  -0.10947
 Alpha virt. eigenvalues --    0.26958   0.29583   0.31827   0.33150   0.34742
 Alpha virt. eigenvalues --    0.37209   0.37765   0.38429   0.39026   0.39581
 Alpha virt. eigenvalues --    0.41036   0.41351   0.41898   0.42884   0.42916
 Alpha virt. eigenvalues --    0.43801   0.44424   0.45541   0.46224   0.46831
 Alpha virt. eigenvalues --    0.46966   0.48698   0.49836   0.50266   0.51467
 Alpha virt. eigenvalues --    0.52353   0.53669   0.55733   0.57610   0.58634
 Alpha virt. eigenvalues --    0.61415   0.63231   0.64980   0.65472   0.67914
 Alpha virt. eigenvalues --    0.70980   0.72712   0.74418   0.75567   0.76180
 Alpha virt. eigenvalues --    0.80542   0.81968   0.82621   0.83803   0.85662
 Alpha virt. eigenvalues --    0.86622   0.87957   0.88354   0.88644   0.89604
 Alpha virt. eigenvalues --    0.89890   0.91188   0.91967   0.92166   0.93775
 Alpha virt. eigenvalues --    0.95062   0.95434   0.97206   0.98177   0.99123
 Alpha virt. eigenvalues --    1.01852   1.02118   1.04788   1.05909   1.06314
 Alpha virt. eigenvalues --    1.06913   1.08255   1.09367   1.09896   1.10735
 Alpha virt. eigenvalues --    1.11171   1.11764   1.13395   1.14550   1.17036
 Alpha virt. eigenvalues --    1.17758   1.18557   1.20108   1.20369   1.22672
 Alpha virt. eigenvalues --    1.23147   1.24189   1.24359   1.24990   1.25209
 Alpha virt. eigenvalues --    1.26364   1.26764   1.27104   1.27842   1.28974
 Alpha virt. eigenvalues --    1.29627   1.30054   1.30615   1.31130   1.31399
 Alpha virt. eigenvalues --    1.33052   1.33561   1.33698   1.34742   1.36218
 Alpha virt. eigenvalues --    1.37057   1.38028   1.40908   1.41485   1.41689
 Alpha virt. eigenvalues --    1.42996   1.45164   1.48188   1.48277   1.50075
 Alpha virt. eigenvalues --    1.50902   1.51298   1.52407   1.54702   1.56695
 Alpha virt. eigenvalues --    1.57109   1.58850   1.59700   1.60680   1.62078
 Alpha virt. eigenvalues --    1.63917   1.64344   1.66273   1.70390   1.71844
 Alpha virt. eigenvalues --    1.73700   1.74861   1.77202   1.78015   1.80453
 Alpha virt. eigenvalues --    1.80990   1.81855   1.83314   1.84186   1.85772
 Alpha virt. eigenvalues --    1.86623   1.87223   1.89009   1.91214   1.93330
 Alpha virt. eigenvalues --    1.96296   1.99804   2.04033   2.06506   2.08237
 Alpha virt. eigenvalues --    2.11602   2.13887   2.14485   2.16007   2.17681
 Alpha virt. eigenvalues --    2.17901   2.19174   2.19680   2.19998   2.22962
 Alpha virt. eigenvalues --    2.23549   2.25678   2.25966   2.27125   2.27832
 Alpha virt. eigenvalues --    2.29607   2.31660   2.32010   2.33230   2.33552
 Alpha virt. eigenvalues --    2.35528   2.37813   2.39345   2.40617   2.41119
 Alpha virt. eigenvalues --    2.41233   2.44795   2.46028   2.47466   2.50063
 Alpha virt. eigenvalues --    2.50799   2.52666   2.53311   2.54784   2.55569
 Alpha virt. eigenvalues --    2.56136   2.58698   2.60305   2.60859   2.62509
 Alpha virt. eigenvalues --    2.65889   2.66730   2.67749   2.68011   2.69667
 Alpha virt. eigenvalues --    2.70839   2.72763   2.73481   2.74023   2.78193
 Alpha virt. eigenvalues --    2.79356   2.81141   2.83272   2.84583   2.84939
 Alpha virt. eigenvalues --    2.85862   2.86443   2.89673   2.92459   2.93317
 Alpha virt. eigenvalues --    2.93908   2.94239   2.99121   3.00668   3.01882
 Alpha virt. eigenvalues --    3.04016   3.07502   3.09098   3.12240   3.12322
 Alpha virt. eigenvalues --    3.14990   3.16844   3.16930   3.22957   3.25934
 Alpha virt. eigenvalues --    3.31191   3.31834   3.37019   3.42277   3.46529
 Alpha virt. eigenvalues --    3.46702   3.52228   3.52412   3.56591   3.57945
 Alpha virt. eigenvalues --    3.61572   3.85821   3.93018   4.30241   4.40741
 Alpha virt. eigenvalues --    4.55988   4.62635   4.66886   4.74462   4.77075
 Alpha virt. eigenvalues --    4.77314   4.80619   4.81905   4.83336   4.91020
 Alpha virt. eigenvalues --    4.93862   4.98146   5.05738   5.11921   5.23303
 Alpha virt. eigenvalues --    5.36359   5.81485
  Beta  occ. eigenvalues --  -20.44354 -20.44236 -20.41823 -20.38517 -20.36131
  Beta  occ. eigenvalues --  -11.15708 -11.15269 -11.14950 -11.14769 -11.14646
  Beta  occ. eigenvalues --  -11.14503 -11.12820 -11.12455 -11.11381 -11.10688
  Beta  occ. eigenvalues --  -11.10530 -11.10151 -11.09997 -11.09430  -1.26634
  Beta  occ. eigenvalues --   -1.24308  -1.22439  -1.17345  -1.16562  -0.99887
  Beta  occ. eigenvalues --   -0.97296  -0.91441  -0.88466  -0.83510  -0.82702
  Beta  occ. eigenvalues --   -0.81890  -0.78949  -0.75468  -0.74251  -0.64668
  Beta  occ. eigenvalues --   -0.63825  -0.59910  -0.58676  -0.57774  -0.54127
  Beta  occ. eigenvalues --   -0.52965  -0.52018  -0.51336  -0.50839  -0.49702
  Beta  occ. eigenvalues --   -0.49032  -0.48715  -0.48371  -0.47009  -0.45807
  Beta  occ. eigenvalues --   -0.45247  -0.44611  -0.43443  -0.41990  -0.41678
  Beta  occ. eigenvalues --   -0.40900  -0.39690  -0.38904  -0.38242  -0.38091
  Beta  occ. eigenvalues --   -0.36912  -0.36303  -0.35742  -0.35036  -0.33075
  Beta  occ. eigenvalues --   -0.31543  -0.30428  -0.26351  -0.25051  -0.22417
  Beta  occ. eigenvalues --   -0.18553  -0.17884
  Beta virt. eigenvalues --    0.20105   0.28756   0.31794   0.33411   0.34646
  Beta virt. eigenvalues --    0.37229   0.37351   0.37842   0.38558   0.39590
  Beta virt. eigenvalues --    0.40088   0.41184   0.41598   0.42046   0.42961
  Beta virt. eigenvalues --    0.43127   0.43831   0.44524   0.45746   0.46323
  Beta virt. eigenvalues --    0.46935   0.47121   0.48919   0.50296   0.50814
  Beta virt. eigenvalues --    0.51953   0.52766   0.53898   0.56509   0.57655
  Beta virt. eigenvalues --    0.59364   0.61810   0.63652   0.65273   0.66057
  Beta virt. eigenvalues --    0.68438   0.71102   0.72842   0.74870   0.75686
  Beta virt. eigenvalues --    0.76519   0.80770   0.82180   0.82774   0.84247
  Beta virt. eigenvalues --    0.85704   0.86759   0.87965   0.88555   0.88804
  Beta virt. eigenvalues --    0.89674   0.90026   0.91350   0.92109   0.92144
  Beta virt. eigenvalues --    0.94334   0.95348   0.95615   0.97398   0.98695
  Beta virt. eigenvalues --    0.99290   1.01997   1.02140   1.05000   1.06104
  Beta virt. eigenvalues --    1.06559   1.07165   1.08481   1.09617   1.10165
  Beta virt. eigenvalues --    1.10764   1.11464   1.11959   1.13568   1.14740
  Beta virt. eigenvalues --    1.17218   1.18187   1.18729   1.20352   1.20686
  Beta virt. eigenvalues --    1.23049   1.23197   1.24331   1.24407   1.25033
  Beta virt. eigenvalues --    1.25479   1.26599   1.26849   1.27254   1.28091
  Beta virt. eigenvalues --    1.29053   1.29792   1.30124   1.30643   1.31317
  Beta virt. eigenvalues --    1.31476   1.33201   1.33744   1.33920   1.34941
  Beta virt. eigenvalues --    1.36539   1.37238   1.38438   1.41161   1.41658
  Beta virt. eigenvalues --    1.42010   1.43249   1.46076   1.48725   1.49914
  Beta virt. eigenvalues --    1.51236   1.51981   1.52718   1.53247   1.55428
  Beta virt. eigenvalues --    1.57341   1.58595   1.59166   1.60215   1.61597
  Beta virt. eigenvalues --    1.62491   1.64162   1.65342   1.66538   1.70653
  Beta virt. eigenvalues --    1.72144   1.73990   1.74934   1.77471   1.78984
  Beta virt. eigenvalues --    1.80655   1.81757   1.82644   1.83513   1.84328
  Beta virt. eigenvalues --    1.86164   1.86954   1.87911   1.89289   1.91334
  Beta virt. eigenvalues --    1.93430   1.96602   2.00091   2.04292   2.06740
  Beta virt. eigenvalues --    2.08553   2.11979   2.14140   2.14714   2.16007
  Beta virt. eigenvalues --    2.18206   2.18296   2.19374   2.20073   2.20434
  Beta virt. eigenvalues --    2.23214   2.24547   2.26146   2.26651   2.27923
  Beta virt. eigenvalues --    2.28341   2.30042   2.32013   2.32953   2.34063
  Beta virt. eigenvalues --    2.34418   2.36092   2.38238   2.39537   2.41199
  Beta virt. eigenvalues --    2.41366   2.41737   2.45309   2.46506   2.47736
  Beta virt. eigenvalues --    2.50352   2.51707   2.52890   2.53493   2.55013
  Beta virt. eigenvalues --    2.55894   2.56903   2.58881   2.60381   2.61096
  Beta virt. eigenvalues --    2.62820   2.66236   2.67026   2.67782   2.68402
  Beta virt. eigenvalues --    2.69931   2.71088   2.72820   2.74102   2.74288
  Beta virt. eigenvalues --    2.78386   2.79430   2.81365   2.83390   2.84731
  Beta virt. eigenvalues --    2.85057   2.86145   2.86571   2.89780   2.92613
  Beta virt. eigenvalues --    2.93477   2.93997   2.94488   2.99707   3.00884
  Beta virt. eigenvalues --    3.02276   3.04435   3.08710   3.09492   3.12502
  Beta virt. eigenvalues --    3.12827   3.15301   3.17028   3.17210   3.23132
  Beta virt. eigenvalues --    3.26369   3.31527   3.32151   3.37084   3.42593
  Beta virt. eigenvalues --    3.46677   3.46871   3.52351   3.52906   3.56861
  Beta virt. eigenvalues --    3.58350   3.61987   3.85915   3.93101   4.30309
  Beta virt. eigenvalues --    4.41030   4.56564   4.62846   4.66989   4.74807
  Beta virt. eigenvalues --    4.77054   4.77425   4.80680   4.81886   4.83367
  Beta virt. eigenvalues --    4.91190   4.93984   4.98197   5.06155   5.11977
  Beta virt. eigenvalues --    5.23523   5.36839   5.81788
          Condensed to atoms (all electrons):
               1          2          3          4          5          6
     1  C    5.138204   0.285396   0.459437  -0.068270  -0.097268   0.003309
     2  C    0.285396   5.285515  -0.025016  -0.012586   0.005845  -0.000039
     3  C    0.459437  -0.025016   4.430815   0.427989   0.403274  -0.048197
     4  O   -0.068270  -0.012586   0.427989   8.426823  -0.073340   0.000097
     5  C   -0.097268   0.005845   0.403274  -0.073340   4.942119   0.232114
     6  O    0.003309  -0.000039  -0.048197   0.000097   0.232114   8.436765
     7  C   -0.006756  -0.000464  -0.044572   0.003748   0.496069  -0.061624
     8  O   -0.000101   0.000000   0.002008  -0.000009  -0.058365  -0.002660
     9  C   -0.034675   0.002626  -0.012913   0.000000  -0.043918   0.001953
    10  O    0.003489  -0.000041  -0.000100  -0.000000   0.003541  -0.000008
    11  C    0.528231  -0.047802  -0.032705   0.004522  -0.010868  -0.000142
    12  C   -0.042794  -0.014295   0.002015  -0.000047  -0.000261   0.000001
    13  H   -0.035375   0.384419  -0.000488   0.000402  -0.000091   0.000000
    14  H   -0.029920   0.357373  -0.006933   0.006375  -0.000303  -0.000007
    15  H   -0.037482   0.384290   0.001009   0.000284   0.000003   0.000000
    16  C   -0.000436  -0.000005  -0.005378  -0.010598  -0.046110   0.214502
    17  H   -0.000230   0.000022  -0.000743   0.012368  -0.006280  -0.033322
    18  H    0.000116  -0.000001   0.000518   0.000271  -0.001202  -0.040666
    19  H    0.000007  -0.000000  -0.000071   0.000232   0.004571  -0.036687
    20  C    0.000039  -0.000000  -0.000143   0.000001  -0.005867   0.000637
    21  H   -0.000020   0.000000  -0.000145   0.000000   0.002657   0.000617
    22  H   -0.000001   0.000000   0.000004  -0.000000  -0.000054  -0.000016
    23  H   -0.000008   0.000000   0.000036  -0.000000  -0.000001   0.000016
    24  H   -0.000289  -0.002094   0.000194  -0.000000  -0.000018  -0.000000
    25  H    0.001968   0.000104  -0.000004   0.000000  -0.000036   0.000000
    26  C   -0.001283  -0.000785   0.000108   0.000001  -0.000041  -0.000000
    27  H   -0.000103  -0.000729  -0.000018   0.000000  -0.000001   0.000000
    28  C   -0.000009  -0.000001  -0.000001  -0.000000   0.000002  -0.000000
    29  C    0.000179   0.000020   0.000010   0.000000  -0.000005  -0.000000
    30  H    0.000000  -0.000000   0.000000   0.000000  -0.000000   0.000000
    31  H   -0.000009  -0.000001   0.000000  -0.000000  -0.000004   0.000000
    32  C    0.000000   0.000001  -0.000000   0.000000   0.000000  -0.000000
    33  H    0.000001  -0.000002   0.000000   0.000000  -0.000000   0.000000
    34  H    0.000000  -0.000000   0.000000   0.000000  -0.000000  -0.000000
    35  H    0.000001   0.000000  -0.000000  -0.000000  -0.000000   0.000000
    36  H    0.000000   0.000000  -0.000000   0.000000   0.000000   0.000000
    37  H   -0.001927  -0.009858  -0.001740   0.046658   0.000497  -0.000003
    38  O    0.002348  -0.045590   0.000155  -0.011094  -0.000026   0.000000
    39  H    0.000565  -0.002953   0.000137   0.000119  -0.000001   0.000000
               7          8          9         10         11         12
     1  C   -0.006756  -0.000101  -0.034675   0.003489   0.528231  -0.042794
     2  C   -0.000464   0.000000   0.002626  -0.000041  -0.047802  -0.014295
     3  C   -0.044572   0.002008  -0.012913  -0.000100  -0.032705   0.002015
     4  O    0.003748  -0.000009   0.000000  -0.000000   0.004522  -0.000047
     5  C    0.496069  -0.058365  -0.043918   0.003541  -0.010868  -0.000261
     6  O   -0.061624  -0.002660   0.001953  -0.000008  -0.000142   0.000001
     7  C    4.937393   0.225264   0.403349  -0.070655  -0.094994   0.004264
     8  O    0.225264   8.433164  -0.051333  -0.000662   0.003799  -0.000051
     9  C    0.403349  -0.051333   4.483148   0.431143   0.435094  -0.034075
    10  O   -0.070655  -0.000662   0.431143   8.370196  -0.071841  -0.008711
    11  C   -0.094994   0.003799   0.435094  -0.071841   5.202917   0.298908
    12  C    0.004264  -0.000051  -0.034075  -0.008711   0.298908   5.131849
    13  H    0.000022  -0.000000  -0.000026   0.000000  -0.002479   0.000390
    14  H    0.000049   0.000000  -0.000104   0.000000   0.002864   0.000147
    15  H   -0.000007  -0.000000   0.000070  -0.000000  -0.001599  -0.001718
    16  C   -0.002636   0.000293  -0.000024   0.000001   0.000027  -0.000000
    17  H   -0.000354   0.000007   0.000018  -0.000000  -0.000010   0.000000
    18  H    0.002819   0.000161  -0.000079  -0.000000  -0.000015   0.000000
    19  H   -0.000006  -0.000012   0.000003  -0.000000  -0.000001   0.000000
    20  C   -0.047892   0.216339  -0.005605  -0.006054  -0.000410   0.000002
    21  H   -0.002427  -0.039244   0.000487   0.000243   0.000125  -0.000001
    22  H    0.005321  -0.036154  -0.000071   0.000121   0.000007  -0.000000
    23  H   -0.006014  -0.035949   0.000488   0.009015  -0.000337   0.000007
    24  H    0.000050   0.000000   0.001935   0.000285  -0.054043   0.407261
    25  H    0.000553  -0.000003  -0.003697   0.010214  -0.042118   0.403131
    26  C    0.000007   0.000001  -0.004389  -0.000107  -0.066385   0.335133
    27  H    0.000004  -0.000000   0.000124  -0.000019   0.000258  -0.040077
    28  C   -0.000071   0.000000   0.000033  -0.011673   0.000914  -0.007021
    29  C   -0.000002   0.000000   0.000926   0.000548  -0.003665  -0.040975
    30  H    0.000000   0.000000   0.000034   0.000177  -0.000098   0.000430
    31  H    0.000174  -0.000005  -0.001121   0.019340  -0.001052  -0.002009
    32  C   -0.000001   0.000000  -0.000018   0.000001  -0.000176   0.003653
    33  H    0.000000  -0.000000  -0.000000   0.000000  -0.000007   0.000100
    34  H    0.000000   0.000000   0.000000  -0.000000  -0.000009  -0.000106
    35  H    0.000000  -0.000000   0.000001   0.000000   0.000040  -0.000083
    36  H    0.000001  -0.000000  -0.000035   0.000060   0.000059   0.000238
    37  H   -0.000019   0.000000   0.000005  -0.000000   0.000012  -0.000003
    38  O    0.000000  -0.000000  -0.000000  -0.000000  -0.000035   0.000000
    39  H    0.000000  -0.000000  -0.000000   0.000000  -0.000028   0.000002
              13         14         15         16         17         18
     1  C   -0.035375  -0.029920  -0.037482  -0.000436  -0.000230   0.000116
     2  C    0.384419   0.357373   0.384290  -0.000005   0.000022  -0.000001
     3  C   -0.000488  -0.006933   0.001009  -0.005378  -0.000743   0.000518
     4  O    0.000402   0.006375   0.000284  -0.010598   0.012368   0.000271
     5  C   -0.000091  -0.000303   0.000003  -0.046110  -0.006280  -0.001202
     6  O    0.000000  -0.000007   0.000000   0.214502  -0.033322  -0.040666
     7  C    0.000022   0.000049  -0.000007  -0.002636  -0.000354   0.002819
     8  O   -0.000000   0.000000  -0.000000   0.000293   0.000007   0.000161
     9  C   -0.000026  -0.000104   0.000070  -0.000024   0.000018  -0.000079
    10  O    0.000000   0.000000  -0.000000   0.000001  -0.000000  -0.000000
    11  C   -0.002479   0.002864  -0.001599   0.000027  -0.000010  -0.000015
    12  C    0.000390   0.000147  -0.001718  -0.000000   0.000000   0.000000
    13  H    0.574864  -0.034878  -0.036875  -0.000000   0.000001   0.000000
    14  H   -0.034878   0.601827  -0.026899   0.000006  -0.000020  -0.000000
    15  H   -0.036875  -0.026899   0.570109   0.000000  -0.000000  -0.000000
    16  C   -0.000000   0.000006   0.000000   4.853637   0.389847   0.379893
    17  H    0.000001  -0.000020  -0.000000   0.389847   0.499330  -0.038775
    18  H    0.000000  -0.000000  -0.000000   0.379893  -0.038775   0.601913
    19  H    0.000000  -0.000000   0.000000   0.391797  -0.027725  -0.034767
    20  C    0.000000   0.000000  -0.000000  -0.000133   0.000000   0.000024
    21  H   -0.000000  -0.000000   0.000000   0.000017   0.000001  -0.000003
    22  H   -0.000000   0.000000   0.000000   0.000002  -0.000000  -0.000001
    23  H   -0.000000   0.000000   0.000000   0.000000   0.000000   0.000000
    24  H   -0.000699   0.000059   0.002256   0.000000   0.000000  -0.000000
    25  H   -0.000033   0.000005   0.000062  -0.000000  -0.000000  -0.000000
    26  C   -0.000033   0.000005  -0.000246  -0.000000  -0.000000   0.000000
    27  H    0.000775   0.000051   0.000071   0.000000   0.000000  -0.000000
    28  C    0.000000   0.000000   0.000000   0.000000  -0.000000   0.000000
    29  C    0.000039  -0.000000   0.000004  -0.000000  -0.000000   0.000000
    30  H    0.000000  -0.000000  -0.000000   0.000000   0.000000  -0.000000
    31  H   -0.000000  -0.000000  -0.000000   0.000000   0.000000  -0.000000
    32  C    0.000002  -0.000000  -0.000000  -0.000000  -0.000000   0.000000
    33  H    0.000002   0.000000  -0.000000   0.000000  -0.000000  -0.000000
    34  H    0.000000   0.000000  -0.000000  -0.000000  -0.000000   0.000000
    35  H   -0.000001   0.000000   0.000000   0.000000   0.000000  -0.000000
    36  H   -0.000000  -0.000000   0.000000   0.000000   0.000000  -0.000000
    37  H    0.000636  -0.004315   0.000551   0.000004   0.000041  -0.000001
    38  O    0.000287  -0.008396   0.000763  -0.000000  -0.000002   0.000000
    39  H    0.000520  -0.009162   0.000380  -0.000000   0.000000   0.000000
              19         20         21         22         23         24
     1  C    0.000007   0.000039  -0.000020  -0.000001  -0.000008  -0.000289
     2  C   -0.000000  -0.000000   0.000000   0.000000   0.000000  -0.002094
     3  C   -0.000071  -0.000143  -0.000145   0.000004   0.000036   0.000194
     4  O    0.000232   0.000001   0.000000  -0.000000  -0.000000  -0.000000
     5  C    0.004571  -0.005867   0.002657  -0.000054  -0.000001  -0.000018
     6  O   -0.036687   0.000637   0.000617  -0.000016   0.000016  -0.000000
     7  C   -0.000006  -0.047892  -0.002427   0.005321  -0.006014   0.000050
     8  O   -0.000012   0.216339  -0.039244  -0.036154  -0.035949   0.000000
     9  C    0.000003  -0.005605   0.000487  -0.000071   0.000488   0.001935
    10  O   -0.000000  -0.006054   0.000243   0.000121   0.009015   0.000285
    11  C   -0.000001  -0.000410   0.000125   0.000007  -0.000337  -0.054043
    12  C    0.000000   0.000002  -0.000001  -0.000000   0.000007   0.407261
    13  H    0.000000   0.000000  -0.000000  -0.000000  -0.000000  -0.000699
    14  H   -0.000000   0.000000  -0.000000   0.000000   0.000000   0.000059
    15  H    0.000000  -0.000000   0.000000   0.000000   0.000000   0.002256
    16  C    0.391797  -0.000133   0.000017   0.000002   0.000000   0.000000
    17  H   -0.027725   0.000000   0.000001  -0.000000   0.000000   0.000000
    18  H   -0.034767   0.000024  -0.000003  -0.000001   0.000000  -0.000000
    19  H    0.568345   0.000003  -0.000003  -0.000000  -0.000000  -0.000000
    20  C    0.000003   4.841604   0.383868   0.391429   0.390875   0.000000
    21  H   -0.000003   0.383868   0.586238  -0.032933  -0.039978   0.000000
    22  H   -0.000000   0.391429  -0.032933   0.565380  -0.029338   0.000000
    23  H   -0.000000   0.390875  -0.039978  -0.029338   0.528047  -0.000000
    24  H   -0.000000   0.000000   0.000000   0.000000  -0.000000   0.564937
    25  H   -0.000000  -0.000002  -0.000000   0.000000   0.000009  -0.024120
    26  C    0.000000   0.000000  -0.000000  -0.000000  -0.000000  -0.046723
    27  H   -0.000000   0.000000  -0.000000  -0.000000   0.000000  -0.002737
    28  C   -0.000000  -0.000000   0.000000   0.000000   0.000001   0.000079
    29  C    0.000000  -0.000000   0.000000   0.000000  -0.000000   0.001439
    30  H    0.000000   0.000000  -0.000000  -0.000000  -0.000000   0.000050
    31  H    0.000000   0.000001  -0.000000  -0.000000   0.000002   0.000066
    32  C    0.000000  -0.000000   0.000000  -0.000000  -0.000000  -0.000105
    33  H    0.000000  -0.000000  -0.000000  -0.000000  -0.000000  -0.000011
    34  H    0.000000  -0.000000   0.000000   0.000000  -0.000000   0.000011
    35  H   -0.000000  -0.000000  -0.000000  -0.000000   0.000000  -0.000002
    36  H   -0.000000  -0.000000  -0.000000   0.000000   0.000000  -0.000009
    37  H   -0.000000  -0.000000  -0.000000   0.000000   0.000000  -0.000000
    38  O    0.000000   0.000000   0.000000  -0.000000  -0.000000  -0.000000
    39  H    0.000000   0.000000  -0.000000  -0.000000   0.000000  -0.000003
              25         26         27         28         29         30
     1  C    0.001968  -0.001283  -0.000103  -0.000009   0.000179   0.000000
     2  C    0.000104  -0.000785  -0.000729  -0.000001   0.000020  -0.000000
     3  C   -0.000004   0.000108  -0.000018  -0.000001   0.000010   0.000000
     4  O    0.000000   0.000001   0.000000  -0.000000   0.000000   0.000000
     5  C   -0.000036  -0.000041  -0.000001   0.000002  -0.000005  -0.000000
     6  O    0.000000  -0.000000   0.000000  -0.000000  -0.000000   0.000000
     7  C    0.000553   0.000007   0.000004  -0.000071  -0.000002   0.000000
     8  O   -0.000003   0.000001  -0.000000   0.000000   0.000000   0.000000
     9  C   -0.003697  -0.004389   0.000124   0.000033   0.000926   0.000034
    10  O    0.010214  -0.000107  -0.000019  -0.011673   0.000548   0.000177
    11  C   -0.042118  -0.066385   0.000258   0.000914  -0.003665  -0.000098
    12  C    0.403131   0.335133  -0.040077  -0.007021  -0.040975   0.000430
    13  H   -0.000033  -0.000033   0.000775   0.000000   0.000039   0.000000
    14  H    0.000005   0.000005   0.000051   0.000000  -0.000000  -0.000000
    15  H    0.000062  -0.000246   0.000071   0.000000   0.000004  -0.000000
    16  C   -0.000000  -0.000000   0.000000   0.000000  -0.000000   0.000000
    17  H   -0.000000  -0.000000   0.000000  -0.000000  -0.000000   0.000000
    18  H   -0.000000   0.000000  -0.000000   0.000000   0.000000  -0.000000
    19  H   -0.000000   0.000000  -0.000000  -0.000000   0.000000   0.000000
    20  C   -0.000002   0.000000   0.000000  -0.000000  -0.000000   0.000000
    21  H   -0.000000  -0.000000  -0.000000   0.000000   0.000000  -0.000000
    22  H    0.000000  -0.000000  -0.000000   0.000000   0.000000  -0.000000
    23  H    0.000009  -0.000000   0.000000   0.000001  -0.000000  -0.000000
    24  H   -0.024120  -0.046723  -0.002737   0.000079   0.001439   0.000050
    25  H    0.482531  -0.038972   0.002735  -0.000442  -0.000551  -0.000139
    26  C   -0.038972   5.009686   0.391536  -0.042476   0.709719  -0.003091
    27  H    0.002735   0.391536   0.534155   0.003763  -0.043241  -0.000138
    28  C   -0.000442  -0.042476   0.003763   5.180400   0.340229   0.375562
    29  C   -0.000551   0.709719  -0.043241   0.340229   4.852722  -0.043361
    30  H   -0.000139  -0.003091  -0.000138   0.375562  -0.043361   0.594301
    31  H   -0.000978  -0.001579  -0.000008   0.380834  -0.030119  -0.018432
    32  C    0.000080  -0.045715  -0.006831  -0.068785   0.353705   0.000343
    33  H    0.000007  -0.000415   0.003527   0.003896  -0.041149  -0.000132
    34  H    0.000001  -0.001340   0.000145   0.000407  -0.045457   0.002140
    35  H   -0.000002  -0.000781   0.000208  -0.001673  -0.041024  -0.000296
    36  H    0.000046   0.001350  -0.000114   0.391444  -0.045489  -0.038032
    37  H   -0.000000   0.000000  -0.000000  -0.000000   0.000000   0.000000
    38  O   -0.000000  -0.000000   0.000000  -0.000000  -0.000000   0.000000
    39  H    0.000000  -0.000001  -0.000000  -0.000000  -0.000000  -0.000000
              31         32         33         34         35         36
     1  C   -0.000009   0.000000   0.000001   0.000000   0.000001   0.000000
     2  C   -0.000001   0.000001  -0.000002  -0.000000   0.000000   0.000000
     3  C    0.000000  -0.000000   0.000000   0.000000  -0.000000  -0.000000
     4  O   -0.000000   0.000000   0.000000   0.000000  -0.000000   0.000000
     5  C   -0.000004   0.000000  -0.000000  -0.000000  -0.000000   0.000000
     6  O    0.000000  -0.000000   0.000000  -0.000000   0.000000   0.000000
     7  C    0.000174  -0.000001   0.000000   0.000000   0.000000   0.000001
     8  O   -0.000005   0.000000  -0.000000   0.000000  -0.000000  -0.000000
     9  C   -0.001121  -0.000018  -0.000000   0.000000   0.000001  -0.000035
    10  O    0.019340   0.000001   0.000000  -0.000000   0.000000   0.000060
    11  C   -0.001052  -0.000176  -0.000007  -0.000009   0.000040   0.000059
    12  C   -0.002009   0.003653   0.000100  -0.000106  -0.000083   0.000238
    13  H   -0.000000   0.000002   0.000002   0.000000  -0.000001  -0.000000
    14  H   -0.000000  -0.000000   0.000000   0.000000   0.000000  -0.000000
    15  H   -0.000000  -0.000000  -0.000000  -0.000000   0.000000   0.000000
    16  C    0.000000  -0.000000   0.000000  -0.000000   0.000000   0.000000
    17  H    0.000000  -0.000000  -0.000000  -0.000000   0.000000   0.000000
    18  H   -0.000000   0.000000  -0.000000   0.000000  -0.000000  -0.000000
    19  H    0.000000   0.000000   0.000000   0.000000  -0.000000  -0.000000
    20  C    0.000001  -0.000000  -0.000000  -0.000000  -0.000000  -0.000000
    21  H   -0.000000   0.000000  -0.000000   0.000000  -0.000000  -0.000000
    22  H   -0.000000  -0.000000  -0.000000   0.000000  -0.000000   0.000000
    23  H    0.000002  -0.000000  -0.000000  -0.000000   0.000000   0.000000
    24  H    0.000066  -0.000105  -0.000011   0.000011  -0.000002  -0.000009
    25  H   -0.000978   0.000080   0.000007   0.000001  -0.000002   0.000046
    26  C   -0.001579  -0.045715  -0.000415  -0.001340  -0.000781   0.001350
    27  H   -0.000008  -0.006831   0.003527   0.000145   0.000208  -0.000114
    28  C    0.380834  -0.068785   0.003896   0.000407  -0.001673   0.391444
    29  C   -0.030119   0.353705  -0.041149  -0.045457  -0.041024  -0.045489
    30  H   -0.018432   0.000343  -0.000132   0.002140  -0.000296  -0.038032
    31  H    0.410218   0.002961  -0.000088  -0.000016  -0.000061  -0.021802
    32  C    0.002961   5.104034   0.390720   0.385232   0.384218  -0.003875
    33  H   -0.000088   0.390720   0.541470  -0.027375  -0.025459   0.000103
    34  H   -0.000016   0.385232  -0.027375   0.587624  -0.039643  -0.000774
    35  H   -0.000061   0.384218  -0.025459  -0.039643   0.569530   0.003168
    36  H   -0.021802  -0.003875   0.000103  -0.000774   0.003168   0.573429
    37  H    0.000000   0.000000   0.000000   0.000000  -0.000000   0.000000
    38  O   -0.000000   0.000000  -0.000000   0.000000  -0.000000   0.000000
    39  H    0.000000   0.000000  -0.000000  -0.000000   0.000000   0.000000
              37         38         39
     1  C   -0.001927   0.002348   0.000565
     2  C   -0.009858  -0.045590  -0.002953
     3  C   -0.001740   0.000155   0.000137
     4  O    0.046658  -0.011094   0.000119
     5  C    0.000497  -0.000026  -0.000001
     6  O   -0.000003   0.000000   0.000000
     7  C   -0.000019   0.000000   0.000000
     8  O    0.000000  -0.000000  -0.000000
     9  C    0.000005  -0.000000  -0.000000
    10  O   -0.000000  -0.000000   0.000000
    11  C    0.000012  -0.000035  -0.000028
    12  C   -0.000003   0.000000   0.000002
    13  H    0.000636   0.000287   0.000520
    14  H   -0.004315  -0.008396  -0.009162
    15  H    0.000551   0.000763   0.000380
    16  C    0.000004  -0.000000  -0.000000
    17  H    0.000041  -0.000002   0.000000
    18  H   -0.000001   0.000000   0.000000
    19  H   -0.000000   0.000000   0.000000
    20  C   -0.000000   0.000000   0.000000
    21  H   -0.000000   0.000000  -0.000000
    22  H    0.000000  -0.000000  -0.000000
    23  H    0.000000  -0.000000   0.000000
    24  H   -0.000000  -0.000000  -0.000003
    25  H   -0.000000  -0.000000   0.000000
    26  C    0.000000  -0.000000  -0.000001
    27  H   -0.000000   0.000000  -0.000000
    28  C   -0.000000  -0.000000  -0.000000
    29  C    0.000000  -0.000000  -0.000000
    30  H    0.000000   0.000000  -0.000000
    31  H    0.000000  -0.000000   0.000000
    32  C    0.000000   0.000000   0.000000
    33  H    0.000000  -0.000000  -0.000000
    34  H    0.000000   0.000000  -0.000000
    35  H   -0.000000  -0.000000   0.000000
    36  H    0.000000   0.000000   0.000000
    37  H    0.221997   0.253708  -0.027515
    38  O    0.253708   8.470709   0.284946
    39  H   -0.027515   0.284946   0.302493
          Atomic-Atomic Spin Densities.
               1          2          3          4          5          6
     1  C   -0.135677   0.006671   0.080214  -0.003260   0.000414  -0.000041
     2  C    0.006671   0.005532  -0.004749   0.000024  -0.000054  -0.000000
     3  C    0.080214  -0.004749   0.205298  -0.128954   0.069113  -0.003737
     4  O   -0.003260   0.000024  -0.128954   0.399381  -0.002322   0.000385
     5  C    0.000414  -0.000054   0.069113  -0.002322  -0.150249   0.008116
     6  O   -0.000041  -0.000000  -0.003737   0.000385   0.008116  -0.001431
     7  C   -0.003179   0.000039  -0.008685   0.000501  -0.054447   0.002410
     8  O    0.000007  -0.000000  -0.000011  -0.000000   0.004024  -0.000245
     9  C   -0.006149  -0.000050  -0.002962   0.000031  -0.004180  -0.000014
    10  O    0.000525   0.000001   0.000044  -0.000000   0.000418  -0.000000
    11  C   -0.074360   0.001984  -0.008655   0.000616  -0.003129   0.000016
    12  C    0.004053   0.000171  -0.000069   0.000000  -0.000030  -0.000000
    13  H    0.001051  -0.000425  -0.000502   0.000136  -0.000034   0.000000
    14  H    0.000769   0.000803  -0.000434  -0.000054   0.000056   0.000000
    15  H    0.000559  -0.000935  -0.000189   0.000047  -0.000013   0.000000
    16  C   -0.000035  -0.000001  -0.000877  -0.000226   0.005466  -0.001261
    17  H   -0.000073  -0.000001  -0.001690   0.000407  -0.000668   0.000002
    18  H    0.000014   0.000000   0.000440  -0.000058  -0.001168   0.000380
    19  H    0.000001  -0.000000   0.000010  -0.000032   0.000032  -0.000043
    20  C    0.000020  -0.000000  -0.000015  -0.000000   0.001930  -0.000088
    21  H   -0.000006   0.000000  -0.000003   0.000000  -0.000683   0.000083
    22  H   -0.000000   0.000000  -0.000001   0.000000  -0.000018   0.000002
    23  H    0.000012  -0.000000   0.000006  -0.000000   0.000158  -0.000002
    24  H    0.000764  -0.000201   0.000025  -0.000000   0.000005  -0.000000
    25  H    0.000182   0.000006  -0.000006  -0.000000   0.000020   0.000000
    26  C    0.000402  -0.000023   0.000031  -0.000001   0.000017  -0.000000
    27  H   -0.000094   0.000001  -0.000013   0.000000  -0.000001   0.000000
    28  C   -0.000002  -0.000000  -0.000000   0.000000  -0.000000   0.000000
    29  C   -0.000020  -0.000001   0.000002  -0.000000   0.000001  -0.000000
    30  H    0.000000   0.000000   0.000000  -0.000000  -0.000000  -0.000000
    31  H    0.000005   0.000000   0.000000  -0.000000  -0.000000  -0.000000
    32  C    0.000004  -0.000000   0.000000  -0.000000   0.000000  -0.000000
    33  H    0.000000  -0.000000   0.000000  -0.000000   0.000000  -0.000000
    34  H    0.000000  -0.000000   0.000000  -0.000000   0.000000  -0.000000
    35  H   -0.000001   0.000000  -0.000000   0.000000  -0.000000   0.000000
    36  H   -0.000000   0.000000  -0.000000   0.000000  -0.000000   0.000000
    37  H    0.000220   0.000081  -0.000051  -0.003556  -0.000044  -0.000000
    38  O   -0.000067  -0.000159   0.000077   0.000566   0.000001  -0.000000
    39  H    0.000001  -0.000061  -0.000006   0.000014  -0.000000   0.000000
               7          8          9         10         11         12
     1  C   -0.003179   0.000007  -0.006149   0.000525  -0.074360   0.004053
     2  C    0.000039  -0.000000  -0.000050   0.000001   0.001984   0.000171
     3  C   -0.008685  -0.000011  -0.002962   0.000044  -0.008655  -0.000069
     4  O    0.000501  -0.000000   0.000031  -0.000000   0.000616   0.000000
     5  C   -0.054447   0.004024  -0.004180   0.000418  -0.003129  -0.000030
     6  O    0.002410  -0.000245  -0.000014  -0.000000   0.000016  -0.000000
     7  C    0.233946  -0.014934   0.069817  -0.003524  -0.010365   0.000120
     8  O   -0.014934   0.002543  -0.002498   0.000477   0.000043   0.000001
     9  C    0.069817  -0.002498  -0.072981  -0.123923   0.072222  -0.004583
    10  O   -0.003524   0.000477  -0.123923   0.564367  -0.004200   0.000028
    11  C   -0.010365   0.000043   0.072222  -0.004200   0.302088  -0.005954
    12  C    0.000120   0.000001  -0.004583   0.000028  -0.005954  -0.033405
    13  H    0.000010   0.000000   0.000011  -0.000000   0.000651  -0.000138
    14  H   -0.000010  -0.000000   0.000006  -0.000000   0.000081   0.000009
    15  H    0.000006  -0.000000   0.000006  -0.000001   0.000387  -0.000086
    16  C    0.001347  -0.000034  -0.000029  -0.000000   0.000021  -0.000000
    17  H    0.000062  -0.000001   0.000004  -0.000000   0.000005  -0.000000
    18  H   -0.000442   0.000034   0.000001   0.000000  -0.000008   0.000000
    19  H   -0.000010   0.000001  -0.000000   0.000000   0.000000   0.000000
    20  C   -0.004167   0.001522  -0.000526  -0.000014  -0.000034   0.000001
    21  H    0.000533   0.000057   0.000218  -0.000034   0.000006   0.000000
    22  H    0.000534   0.000083  -0.000009  -0.000035   0.000000   0.000000
    23  H   -0.000710   0.000117  -0.001832  -0.000065  -0.000095  -0.000001
    24  H   -0.000013   0.000000  -0.000158   0.000024  -0.002139   0.000839
    25  H   -0.000097  -0.000000  -0.000374  -0.000838  -0.000794   0.002398
    26  C   -0.000010  -0.000000  -0.000005   0.000306  -0.007849   0.008747
    27  H    0.000002  -0.000000   0.000048  -0.000003   0.000809  -0.000129
    28  C    0.000006  -0.000000   0.000270   0.000529   0.000078  -0.000021
    29  C   -0.000002   0.000000  -0.000326   0.000031  -0.000871   0.000762
    30  H    0.000000   0.000000  -0.000014   0.000006  -0.000007  -0.000032
    31  H   -0.000016   0.000001  -0.000477  -0.002585   0.000104  -0.000139
    32  C   -0.000000   0.000000  -0.000011   0.000002  -0.000044  -0.000012
    33  H   -0.000000   0.000000  -0.000000   0.000000  -0.000002  -0.000001
    34  H   -0.000000   0.000000  -0.000000   0.000000  -0.000001   0.000001
    35  H    0.000000  -0.000000   0.000002  -0.000001   0.000007  -0.000003
    36  H    0.000000  -0.000000   0.000019  -0.000031   0.000010  -0.000002
    37  H    0.000001  -0.000000  -0.000000   0.000000  -0.000004   0.000000
    38  O   -0.000000   0.000000   0.000000   0.000000  -0.000000  -0.000000
    39  H    0.000000   0.000000  -0.000000  -0.000000   0.000001  -0.000000
              13         14         15         16         17         18
     1  C    0.001051   0.000769   0.000559  -0.000035  -0.000073   0.000014
     2  C   -0.000425   0.000803  -0.000935  -0.000001  -0.000001   0.000000
     3  C   -0.000502  -0.000434  -0.000189  -0.000877  -0.001690   0.000440
     4  O    0.000136  -0.000054   0.000047  -0.000226   0.000407  -0.000058
     5  C   -0.000034   0.000056  -0.000013   0.005466  -0.000668  -0.001168
     6  O    0.000000   0.000000   0.000000  -0.001261   0.000002   0.000380
     7  C    0.000010  -0.000010   0.000006   0.001347   0.000062  -0.000442
     8  O    0.000000  -0.000000  -0.000000  -0.000034  -0.000001   0.000034
     9  C    0.000011   0.000006   0.000006  -0.000029   0.000004   0.000001
    10  O   -0.000000  -0.000000  -0.000001  -0.000000  -0.000000   0.000000
    11  C    0.000651   0.000081   0.000387   0.000021   0.000005  -0.000008
    12  C   -0.000138   0.000009  -0.000086  -0.000000  -0.000000   0.000000
    13  H   -0.004156   0.000253   0.000397   0.000000   0.000001  -0.000000
    14  H    0.000253  -0.003207   0.000209   0.000000   0.000001   0.000000
    15  H    0.000397   0.000209  -0.001428  -0.000000  -0.000000   0.000000
    16  C    0.000000   0.000000  -0.000000  -0.011057   0.000402   0.001830
    17  H    0.000001   0.000001  -0.000000   0.000402   0.002516  -0.000410
    18  H   -0.000000   0.000000   0.000000   0.001830  -0.000410  -0.001244
    19  H   -0.000000   0.000000   0.000000   0.000892  -0.000442  -0.000054
    20  C    0.000000  -0.000000  -0.000000   0.000048   0.000001  -0.000009
    21  H   -0.000000   0.000000   0.000000  -0.000011  -0.000000   0.000001
    22  H   -0.000000   0.000000   0.000000  -0.000001  -0.000000   0.000000
    23  H    0.000000  -0.000000  -0.000000   0.000001   0.000000  -0.000000
    24  H    0.000094  -0.000014  -0.000284   0.000000   0.000000  -0.000000
    25  H    0.000016  -0.000001  -0.000036   0.000000   0.000000  -0.000000
    26  C   -0.000127   0.000004   0.000060  -0.000000  -0.000000   0.000000
    27  H    0.000086  -0.000001  -0.000021   0.000000   0.000000  -0.000000
    28  C    0.000000  -0.000000  -0.000000   0.000000   0.000000  -0.000000
    29  C    0.000011  -0.000000  -0.000002  -0.000000  -0.000000   0.000000
    30  H   -0.000000   0.000000   0.000000  -0.000000  -0.000000   0.000000
    31  H   -0.000000   0.000000   0.000000  -0.000000  -0.000000   0.000000
    32  C   -0.000002   0.000000   0.000000  -0.000000  -0.000000   0.000000
    33  H   -0.000000   0.000000   0.000000  -0.000000  -0.000000   0.000000
    34  H   -0.000000   0.000000   0.000000  -0.000000  -0.000000   0.000000
    35  H    0.000000  -0.000000  -0.000000   0.000000   0.000000  -0.000000
    36  H    0.000000  -0.000000  -0.000000   0.000000   0.000000  -0.000000
    37  H   -0.000009   0.000378  -0.000022   0.000000  -0.000001   0.000000
    38  O   -0.000007   0.000133  -0.000001  -0.000000  -0.000000  -0.000000
    39  H   -0.000012   0.000183  -0.000011   0.000000  -0.000000   0.000000
              19         20         21         22         23         24
     1  C    0.000001   0.000020  -0.000006  -0.000000   0.000012   0.000764
     2  C   -0.000000  -0.000000   0.000000   0.000000  -0.000000  -0.000201
     3  C    0.000010  -0.000015  -0.000003  -0.000001   0.000006   0.000025
     4  O   -0.000032  -0.000000   0.000000   0.000000  -0.000000  -0.000000
     5  C    0.000032   0.001930  -0.000683  -0.000018   0.000158   0.000005
     6  O   -0.000043  -0.000088   0.000083   0.000002  -0.000002  -0.000000
     7  C   -0.000010  -0.004167   0.000533   0.000534  -0.000710  -0.000013
     8  O    0.000001   0.001522   0.000057   0.000083   0.000117   0.000000
     9  C   -0.000000  -0.000526   0.000218  -0.000009  -0.001832  -0.000158
    10  O    0.000000  -0.000014  -0.000034  -0.000035  -0.000065   0.000024
    11  C    0.000000  -0.000034   0.000006   0.000000  -0.000095  -0.002139
    12  C    0.000000   0.000001   0.000000   0.000000  -0.000001   0.000839
    13  H   -0.000000   0.000000  -0.000000  -0.000000   0.000000   0.000094
    14  H    0.000000  -0.000000   0.000000   0.000000  -0.000000  -0.000014
    15  H    0.000000  -0.000000   0.000000   0.000000  -0.000000  -0.000284
    16  C    0.000892   0.000048  -0.000011  -0.000001   0.000001   0.000000
    17  H   -0.000442   0.000001  -0.000000  -0.000000   0.000000   0.000000
    18  H   -0.000054  -0.000009   0.000001   0.000000  -0.000000  -0.000000
    19  H   -0.000266  -0.000001   0.000000   0.000000  -0.000000  -0.000000
    20  C   -0.000001   0.003153   0.000174  -0.000256   0.001188  -0.000000
    21  H    0.000000   0.000174  -0.000799   0.000363  -0.000325  -0.000000
    22  H    0.000000  -0.000256   0.000363   0.000755  -0.000509   0.000000
    23  H   -0.000000   0.001188  -0.000325  -0.000509   0.000930   0.000000
    24  H   -0.000000  -0.000000  -0.000000   0.000000   0.000000   0.006036
    25  H   -0.000000  -0.000000   0.000000  -0.000000   0.000002   0.000877
    26  C    0.000000  -0.000000   0.000000  -0.000000  -0.000000  -0.001727
    27  H   -0.000000   0.000000  -0.000000  -0.000000   0.000000   0.000148
    28  C   -0.000000   0.000000  -0.000000  -0.000000   0.000000   0.000025
    29  C    0.000000  -0.000000   0.000000   0.000000  -0.000000  -0.000018
    30  H    0.000000  -0.000000   0.000000   0.000000  -0.000000  -0.000005
    31  H    0.000000  -0.000000   0.000000   0.000000   0.000001  -0.000024
    32  C    0.000000  -0.000000   0.000000   0.000000  -0.000000  -0.000005
    33  H    0.000000  -0.000000   0.000000   0.000000  -0.000000  -0.000000
    34  H    0.000000   0.000000   0.000000   0.000000  -0.000000  -0.000000
    35  H   -0.000000   0.000000  -0.000000  -0.000000   0.000000   0.000000
    36  H   -0.000000   0.000000  -0.000000  -0.000000   0.000000   0.000000
    37  H   -0.000000   0.000000  -0.000000  -0.000000   0.000000   0.000000
    38  O   -0.000000   0.000000  -0.000000  -0.000000   0.000000   0.000000
    39  H   -0.000000   0.000000  -0.000000  -0.000000   0.000000   0.000000
              25         26         27         28         29         30
     1  C    0.000182   0.000402  -0.000094  -0.000002  -0.000020   0.000000
     2  C    0.000006  -0.000023   0.000001  -0.000000  -0.000001   0.000000
     3  C   -0.000006   0.000031  -0.000013  -0.000000   0.000002   0.000000
     4  O   -0.000000  -0.000001   0.000000   0.000000  -0.000000  -0.000000
     5  C    0.000020   0.000017  -0.000001  -0.000000   0.000001  -0.000000
     6  O    0.000000  -0.000000   0.000000   0.000000  -0.000000  -0.000000
     7  C   -0.000097  -0.000010   0.000002   0.000006  -0.000002   0.000000
     8  O   -0.000000  -0.000000  -0.000000  -0.000000   0.000000   0.000000
     9  C   -0.000374  -0.000005   0.000048   0.000270  -0.000326  -0.000014
    10  O   -0.000838   0.000306  -0.000003   0.000529   0.000031   0.000006
    11  C   -0.000794  -0.007849   0.000809   0.000078  -0.000871  -0.000007
    12  C    0.002398   0.008747  -0.000129  -0.000021   0.000762  -0.000032
    13  H    0.000016  -0.000127   0.000086   0.000000   0.000011  -0.000000
    14  H   -0.000001   0.000004  -0.000001  -0.000000  -0.000000   0.000000
    15  H   -0.000036   0.000060  -0.000021  -0.000000  -0.000002   0.000000
[...]
    13  H(1)               0.00453      20.24158       7.22270       6.75187
    14  H(1)               0.00074       3.30084       1.17782       1.10104
    15  H(1)               0.00345      15.40701       5.49761       5.13923
    16  C(13)              0.00509       5.72560       2.04304       1.90985
    17  H(1)               0.00008       0.34811       0.12422       0.11612
    18  H(1)              -0.00022      -1.00111      -0.35722      -0.33393
    19  H(1)              -0.00003      -0.13041      -0.04653      -0.04350
    20  C(13)             -0.00711      -7.99083      -2.85133      -2.66545
    21  H(1)               0.00014       0.63286       0.22582       0.21110
    22  H(1)               0.00003       0.11677       0.04167       0.03895
    23  H(1)               0.00024       1.06902       0.38145       0.35659
    24  H(1)              -0.00015      -0.67451      -0.24068      -0.22499
    25  H(1)              -0.00021      -0.93837      -0.33483      -0.31301
    26  C(13)              0.00386       4.33548       1.54701       1.44616
    27  H(1)              -0.00065      -2.91933      -1.04169      -0.97378
    28  C(13)              0.00071       0.79743       0.28454       0.26600
    29  C(13)             -0.00581      -6.53570      -2.33210      -2.18007
    30  H(1)              -0.00049      -2.18696      -0.78036      -0.72949
    31  H(1)              -0.00002      -0.09212      -0.03287      -0.03073
    32  C(13)              0.00114       1.28527       0.45862       0.42872
    33  H(1)              -0.00005      -0.21933      -0.07826      -0.07316
    34  H(1)              -0.00043      -1.93464      -0.69033      -0.64533
    35  H(1)              -0.00045      -2.00768      -0.71639      -0.66969
    36  H(1)              -0.00029      -1.27617      -0.45537      -0.42569
    37  H(1)              -0.00000      -0.00113      -0.00040      -0.00038
    38  O(17)              0.00000      -0.00010      -0.00003      -0.00003
    39  H(1)               0.00000       0.00248       0.00088       0.00083
 --------------------------------------------------------
       Center         ----  Spin Dipole Couplings  ----
                      3XX-RR        3YY-RR        3ZZ-RR
 --------------------------------------------------------
     1   Atom       -0.076790     -0.097133      0.173922
     2   Atom        0.002785     -0.001465     -0.001320
     3   Atom        0.006149     -0.004502     -0.001647
     4   Atom       -0.527098     -0.713375      1.240473
     5   Atom       -0.075720     -0.103354      0.179074
     6   Atom       -0.010699     -0.014987      0.025686
     7   Atom        0.035206      0.054590     -0.089797
     8   Atom       -0.007826      0.017743     -0.009917
     9   Atom       -0.050030     -0.079578      0.129607
    10   Atom       -0.417753     -0.644125      1.061878
    11   Atom        0.021237      0.020766     -0.042003
    12   Atom        0.001448      0.002535     -0.003982
    13   Atom        0.000236      0.003131     -0.003367
    14   Atom       -0.002591      0.006376     -0.003785
    15   Atom       -0.000087      0.002013     -0.001926
    16   Atom       -0.000247     -0.003149      0.003396
    17   Atom       -0.000713     -0.001168      0.001881
    18   Atom       -0.001622     -0.000890      0.002512
    19   Atom        0.000939     -0.000449     -0.000490
    20   Atom        0.002235      0.001156     -0.003390
    21   Atom        0.000534      0.001311     -0.001845
    22   Atom        0.000229      0.000822     -0.001050
    23   Atom        0.000119      0.003306     -0.003425
    24   Atom        0.000431      0.000617     -0.001048
    25   Atom        0.000865      0.001660     -0.002525
    26   Atom        0.005096     -0.003490     -0.001605
    27   Atom        0.000530      0.001445     -0.001974
    28   Atom        0.002921     -0.001094     -0.001827
    29   Atom       -0.001243      0.005807     -0.004563
    30   Atom        0.001899     -0.000957     -0.000941
    31   Atom        0.008293     -0.003709     -0.004584
    32   Atom        0.000828     -0.000540     -0.000288
    33   Atom        0.000640     -0.000299     -0.000341
    34   Atom        0.000612     -0.000230     -0.000382
    35   Atom        0.000546     -0.000299     -0.000247
    36   Atom        0.001808     -0.001454     -0.000354
    37   Atom       -0.001404      0.002982     -0.001578
    38   Atom       -0.000809      0.001661     -0.000852
    39   Atom       -0.000651      0.001408     -0.000757
 --------------------------------------------------------
                        XY            XZ            YZ
 --------------------------------------------------------
     1   Atom       -0.009335     -0.089502      0.026287
     2   Atom       -0.003393      0.002266     -0.001630
     3   Atom        0.014579     -0.003070      0.010792
     4   Atom       -0.079805     -0.657607      0.216475
     5   Atom       -0.005835     -0.086152      0.022091
     6   Atom        0.012838     -0.042117     -0.001665
     7   Atom        0.010878      0.043919     -0.018972
     8   Atom       -0.006088      0.008858      0.001990
     9   Atom        0.005273     -0.077722      0.019448
    10   Atom       -0.062707     -0.635488      0.100410
    11   Atom        0.002729      0.020822      0.002041
    12   Atom       -0.003394      0.002387     -0.001872
    13   Atom       -0.003075      0.000855     -0.000263
    14   Atom       -0.003611      0.001796     -0.002979
    15   Atom       -0.002440      0.001297     -0.002284
    16   Atom       -0.000201      0.007022      0.000107
    17   Atom       -0.001949      0.005893     -0.003959
    18   Atom       -0.001036      0.001746     -0.002830
    19   Atom       -0.001599      0.001977     -0.001221
    20   Atom       -0.002258     -0.001668     -0.003153
    21   Atom       -0.001050      0.000377      0.000795
    22   Atom       -0.001079      0.000046      0.000077
    23   Atom       -0.004028     -0.002656      0.002449
    24   Atom       -0.000748      0.001158     -0.000973
    25   Atom       -0.004052      0.003025     -0.002788
    26   Atom       -0.011866      0.016327     -0.008343
    27   Atom       -0.001004      0.000661      0.001119
    28   Atom       -0.000670     -0.000893      0.000158
    29   Atom        0.008393     -0.016091      0.009950
    30   Atom       -0.000549     -0.000181     -0.000098
    31   Atom       -0.002776     -0.001573      0.000382
    32   Atom       -0.000492     -0.000775      0.000171
    33   Atom       -0.000433     -0.000615      0.000189
    34   Atom       -0.000187     -0.000163      0.000069
    35   Atom       -0.000221     -0.000633      0.000136
    36   Atom       -0.000134     -0.001492      0.000135
    37   Atom        0.000065      0.000055     -0.000416
    38   Atom        0.000038      0.000012     -0.000215
    39   Atom       -0.000237      0.000060     -0.000276
 --------------------------------------------------------


 ---------------------------------------------------------------------------------
              Anisotropic Spin Dipole Couplings in Principal Axis System
 ---------------------------------------------------------------------------------

       Atom             a.u.   MegaHertz   Gauss  10(-4) cm-1        Axes

              Baa    -0.1056   -14.169    -5.056    -4.726  0.9462  0.1450  0.2893
     1 C(13)  Bbb    -0.0996   -13.362    -4.768    -4.457 -0.1110  0.9852 -0.1310
              Bcc     0.2052    27.531     9.824     9.183 -0.3040  0.0918  0.9482
 
              Baa    -0.0034    -0.461    -0.165    -0.154  0.3834  0.8833  0.2699
     2 C(13)  Bbb    -0.0023    -0.311    -0.111    -0.104 -0.4476 -0.0779  0.8908
              Bcc     0.0058     0.772     0.275     0.257  0.8079 -0.4623  0.3654
 
              Baa    -0.0207    -2.779    -0.992    -0.927 -0.4580  0.7400 -0.4926
     3 C(13)  Bbb     0.0035     0.468     0.167     0.156 -0.4764  0.2636  0.8388
              Bcc     0.0172     2.311     0.825     0.771  0.7505  0.6188  0.2318
 
              Baa    -0.7497    54.250    19.358    18.096  0.8206  0.5301  0.2135
     4 O(17)  Bbb    -0.7328    53.023    18.920    17.686 -0.4781  0.8415 -0.2517
              Bcc     1.4825  -107.273   -38.278   -35.782 -0.3130  0.1044  0.9440
 
              Baa    -0.1053   -14.128    -5.041    -4.713 -0.2379  0.9601 -0.1467
     5 C(13)  Bbb    -0.1019   -13.669    -4.878    -4.560  0.9264  0.2697  0.2629
              Bcc     0.2071    27.797     9.919     9.272 -0.2920  0.0733  0.9536
 
              Baa    -0.0420     3.042     1.086     1.015  0.7995 -0.3493  0.4886
     6 O(17)  Bbb    -0.0124     0.895     0.319     0.299  0.2273  0.9290  0.2922
              Bcc     0.0544    -3.937    -1.405    -1.313 -0.5559 -0.1226  0.8221
 
              Baa    -0.1065   -14.294    -5.100    -4.768 -0.3026  0.1316  0.9440
     7 C(13)  Bbb     0.0470     6.313     2.253     2.106  0.8541 -0.4021  0.3299
              Bcc     0.0595     7.981     2.848     2.662  0.4230  0.9061  0.0093
 
              Baa    -0.0186     1.349     0.481     0.450 -0.6760 -0.1525  0.7209
     8 O(17)  Bbb    -0.0005     0.034     0.012     0.011  0.7031  0.1592  0.6930
              Bcc     0.0191    -1.383    -0.494    -0.461 -0.2205  0.9754 -0.0004
 
              Baa    -0.0916   -12.289    -4.385    -4.099 -0.6213  0.7308 -0.2826
     9 C(13)  Bbb    -0.0681    -9.140    -3.261    -3.049  0.7034  0.6791  0.2097
              Bcc     0.1597    21.429     7.646     7.148 -0.3452  0.0685  0.9360
 
              Baa    -0.6760    48.916    17.455    16.317  0.6922  0.6895  0.2133
    10 O(17)  Bbb    -0.6282    45.458    16.221    15.163 -0.6326  0.7218 -0.2807
              Bcc     1.3042   -94.374   -33.675   -31.480 -0.3475  0.0594  0.9358
 
              Baa    -0.0483    -6.476    -2.311    -2.160 -0.2863 -0.0170  0.9580
    11 C(13)  Bbb     0.0195     2.617     0.934     0.873 -0.3613  0.9279 -0.0915
              Bcc     0.0288     3.859     1.377     1.287  0.8874  0.3723  0.2719
 
              Baa    -0.0049    -0.663    -0.236    -0.221 -0.3009  0.1009  0.9483
    12 C(13)  Bbb    -0.0014    -0.182    -0.065    -0.061  0.7076  0.6903  0.1511
              Bcc     0.0063     0.844     0.301     0.282 -0.6394  0.7165 -0.2791
 
              Baa    -0.0036    -1.920    -0.685    -0.641 -0.2878 -0.0942  0.9530
    13 H(1)   Bbb    -0.0015    -0.820    -0.293    -0.274  0.7911  0.5375  0.2920
              Bcc     0.0051     2.741     0.978     0.914 -0.5398  0.8380 -0.0802
 
              Baa    -0.0051    -2.720    -0.970    -0.907 -0.5304  0.0528  0.8461
    14 H(1)   Bbb    -0.0035    -1.864    -0.665    -0.622  0.7789  0.4244  0.4618
              Bcc     0.0086     4.583     1.635     1.529 -0.3347  0.9039 -0.2662
 
              Baa    -0.0030    -1.594    -0.569    -0.532 -0.0986  0.3732  0.9225
    15 H(1)   Bbb    -0.0017    -0.893    -0.319    -0.298  0.8590  0.5000 -0.1105
              Bcc     0.0047     2.488     0.888     0.830 -0.5024  0.7815 -0.3698
 
              Baa    -0.0057    -0.765    -0.273    -0.255  0.7880  0.0877 -0.6094
    16 C(13)  Bbb    -0.0031    -0.420    -0.150    -0.140 -0.0674  0.9961  0.0562
              Bcc     0.0088     1.185     0.423     0.395  0.6119 -0.0032  0.7909
 
              Baa    -0.0057    -3.068    -1.095    -1.023  0.6754 -0.2963 -0.6753
    17 H(1)   Bbb    -0.0028    -1.489    -0.531    -0.497  0.4913  0.8637  0.1124
              Bcc     0.0085     4.557     1.626     1.520  0.5500 -0.4077  0.7289
 
              Baa    -0.0025    -1.333    -0.476    -0.445  0.1642  0.8823  0.4412
    18 H(1)   Bbb    -0.0023    -1.207    -0.431    -0.402  0.9387 -0.0023 -0.3448
              Bcc     0.0048     2.539     0.906     0.847  0.3032 -0.4707  0.8285
 
              Baa    -0.0019    -1.009    -0.360    -0.337 -0.5006  0.1647  0.8499
    19 H(1)   Bbb    -0.0015    -0.795    -0.284    -0.265  0.4798  0.8700  0.1140
              Bcc     0.0034     1.804     0.644     0.602  0.7206 -0.4648  0.5145
 
              Baa    -0.0058    -0.779    -0.278    -0.260  0.3043  0.4730  0.8268
    20 C(13)  Bbb     0.0017     0.229     0.082     0.076  0.6296  0.5516 -0.5472
              Bcc     0.0041     0.550     0.196     0.184  0.7149 -0.6870  0.1300
 
              Baa    -0.0022    -1.165    -0.416    -0.389 -0.2384 -0.2829  0.9290
    21 H(1)   Bbb     0.0001     0.048     0.017     0.016  0.8106  0.4688  0.3508
              Bcc     0.0021     1.117     0.399     0.373 -0.5348  0.8368  0.1176
 
              Baa    -0.0011    -0.568    -0.203    -0.190 -0.1303 -0.1146  0.9848
    22 H(1)   Bbb    -0.0006    -0.309    -0.110    -0.103  0.7849  0.5950  0.1730
              Bcc     0.0016     0.877     0.313     0.293 -0.6058  0.7955  0.0124
 
              Baa    -0.0049    -2.593    -0.925    -0.865  0.4350 -0.0550  0.8988
    23 H(1)   Bbb    -0.0024    -1.257    -0.448    -0.419  0.7091  0.6361 -0.3043
              Bcc     0.0072     3.850     1.374     1.284 -0.5550  0.7696  0.3157
 
              Baa    -0.0018    -0.963    -0.344    -0.321 -0.3816  0.2408  0.8924
    24 H(1)   Bbb    -0.0002    -0.111    -0.040    -0.037  0.6797  0.7274  0.0944
              Bcc     0.0020     1.074     0.383     0.358 -0.6264  0.6426 -0.4412
 
              Baa    -0.0043    -2.319    -0.828    -0.774 -0.4150  0.1376  0.8994
    25 H(1)   Bbb    -0.0027    -1.460    -0.521    -0.487  0.6579  0.7282  0.1922
              Bcc     0.0071     3.779     1.349     1.261 -0.6285  0.6714 -0.3927
 
              Baa    -0.0151    -2.029    -0.724    -0.677 -0.6815 -0.1879  0.7073
    26 C(13)  Bbb    -0.0105    -1.408    -0.502    -0.470  0.2104  0.8753  0.4353
              Bcc     0.0256     3.437     1.226     1.146  0.7009 -0.4455  0.5570
 
              Baa    -0.0026    -1.383    -0.493    -0.461 -0.2943 -0.3225  0.8996
    27 H(1)   Bbb     0.0004     0.217     0.077     0.072  0.8356  0.3701  0.4060
              Bcc     0.0022     1.166     0.416     0.389 -0.4639  0.8712  0.1606
 
              Baa    -0.0020    -0.267    -0.095    -0.089  0.1729 -0.0446  0.9839
    28 C(13)  Bbb    -0.0012    -0.161    -0.058    -0.054  0.1637  0.9864  0.0159
              Bcc     0.0032     0.429     0.153     0.143  0.9712 -0.1583 -0.1778
 
              Baa    -0.0246    -3.306    -1.180    -1.103  0.6126 -0.3930  0.6858
    29 C(13)  Bbb     0.0113     1.515     0.540     0.505  0.4044  0.9013  0.1552
              Bcc     0.0134     1.792     0.639     0.598 -0.6791  0.1822  0.7111
 
              Baa    -0.0011    -0.611    -0.218    -0.204  0.1796  0.8145  0.5516
    30 H(1)   Bbb    -0.0009    -0.461    -0.165    -0.154 -0.0550 -0.5515  0.8323
              Bcc     0.0020     1.072     0.383     0.358  0.9822 -0.1798 -0.0542
 
              Baa    -0.0048    -2.549    -0.910    -0.850  0.0983 -0.0983  0.9903
    31 H(1)   Bbb    -0.0043    -2.304    -0.822    -0.768  0.2232  0.9719  0.0743
              Bcc     0.0091     4.853     1.732     1.619  0.9698 -0.2137 -0.1175
 
              Baa    -0.0008    -0.101    -0.036    -0.034  0.4841  0.6718  0.5607
    32 C(13)  Bbb    -0.0006    -0.082    -0.029    -0.027  0.1434 -0.6930  0.7065
              Bcc     0.0014     0.183     0.065     0.061  0.8632 -0.2616 -0.4318
 
              Baa    -0.0006    -0.341    -0.122    -0.114  0.4555  0.0876  0.8859
    33 H(1)   Bbb    -0.0005    -0.244    -0.087    -0.081  0.2485  0.9431 -0.2211
              Bcc     0.0011     0.585     0.209     0.195  0.8548 -0.3208 -0.4078
 
              Baa    -0.0004    -0.223    -0.080    -0.074  0.1073 -0.2495  0.9624
    34 H(1)   Bbb    -0.0003    -0.140    -0.050    -0.047  0.2426  0.9453  0.2180
              Bcc     0.0007     0.363     0.129     0.121  0.9642 -0.2101 -0.1620
 
              Baa    -0.0006    -0.319    -0.114    -0.106  0.4763 -0.0481  0.8780
    35 H(1)   Bbb    -0.0004    -0.188    -0.067    -0.063  0.2011  0.9780 -0.0555
              Bcc     0.0009     0.507     0.181     0.169  0.8560 -0.2030 -0.4755
 
              Baa    -0.0015    -0.785    -0.280    -0.262 -0.0355  0.9855 -0.1662
    36 H(1)   Bbb    -0.0011    -0.590    -0.210    -0.197  0.4556  0.1640  0.8750
              Bcc     0.0026     1.375     0.491     0.459  0.8895 -0.0447 -0.4548
 
              Baa    -0.0016    -0.871    -0.311    -0.291 -0.2584  0.0903  0.9618
    37 H(1)   Bbb    -0.0014    -0.741    -0.264    -0.247  0.9659  0.0102  0.2586
              Bcc     0.0030     1.612     0.575     0.538  0.0135  0.9959 -0.0898
 
              Baa    -0.0009     0.063     0.023     0.021 -0.2363  0.0854  0.9679
    38 O(17)  Bbb    -0.0008     0.058     0.021     0.019  0.9716  0.0058  0.2367
              Bcc     0.0017    -0.122    -0.043    -0.041  0.0146  0.9963 -0.0844
 
              Baa    -0.0008    -0.426    -0.152    -0.142 -0.2407  0.0948  0.9660
    39 H(1)   Bbb    -0.0007    -0.358    -0.128    -0.119  0.9639  0.1399  0.2265
              Bcc     0.0015     0.785     0.280     0.262 -0.1137  0.9856 -0.1250
 

 ---------------------------------------------------------------------------------

 Unable to Open any file for archive entry.
 1\1\GINC-P08R01N23\FOpt\UHF\6-31G(d)\C14H20O5(1-,2)\JL3566\26-Oct-2021
 \1\\# HF/6-31G* Opt=(Z-matrix,MaxCycles=100) Geom=PrintInputOrient\\<q
 mtool> simtype="Geometry optimization" </qmtool> Q1H-ACC-O2-120a\\-1,2
 \C,0,-0.2269999981,-1.5310000181,-0.6560000181\C,0,0.2840000093,-2.911
 9999409,-0.9819999933\C,0,-1.6100000143,-1.4620000124,-0.1850000024\O,
 0,-2.3350000381,-2.4830000401,-0.0659999996\C,0,-2.1180000305,-0.12999
 99952,0.1280000061\O,0,-3.4419999123,0.0240000002,0.5090000033\C,0,-1.
 3279999495,0.9879999757,0.0089999996\O,0,-1.8309999704,2.2200000286,0.
 3880000114\C,0,0.0309999995,0.9350000024,-0.4970000088\O,0,0.722000002
 9,2.0050001144,-0.6690000296\C,0,0.5389999747,-0.3939999938,-0.7929999
 828\C,0,1.9720000029,-0.4300000072,-1.2539999485\H,0,1.0260000229,-3.2
 60999918,-0.2540000081\H,0,-0.5630000234,-3.6010000706,-0.9589999914\H
 ,0,0.7549999952,-2.9479999542,-1.9700000286\C,0,-3.7509999275,-0.63499
 99905,1.7410000563\H,0,-3.5380001068,-1.7020000219,1.6699999571\H,0,-3
 .1830000877,-0.1840000004,2.5659999847\H,0,-4.8179998398,-0.4679999948
 ,1.9090000391\C,0,-2.132999897,3.0239999294,-0.75\H,0,-2.9059998989,2.
 5460000038,-1.3650000095\H,0,-2.5150001049,3.9719998837,-0.3610000014\
 H,0,-1.2300000191,3.2000000477,-1.3400000334\H,0,2.1019999981,-1.17499
 99523,-2.0529999733\H,0,2.2119998932,0.5500000119,-1.6720000505\C,0,2.
 888999939,-0.7829999924,-0.1150000021\H,0,2.8800001144,-1.8339999914,0
 .1790000051\C,0,3.7630000114,1.5349999666,0.3269999921\C,0,3.671000003
 8,0.0529999994,0.5820000172\H,0,4.6760001183,1.7840000391,-0.232999995
 4\H,0,2.8849999905,1.9040000439,-0.2070000023\C,0,4.5430002213,-0.4609
 999955,1.6979999542\H,0,4.4499998093,-1.5460000038,1.8140000105\H,0,5.
 5989999771,-0.2240000069,1.5119999647\H,0,4.2769999504,0.0109999999,2.
 6530001163\H,0,3.8210000992,2.0710000992,1.2819999456\H,4,rAH,3,120.,5
 ,180.,0\X,37,1.,4,90.,3,0.,0\O,37,0.9527,38,90.,4,180.,0\H,39,0.9527,3
 7,104.52,38,dih,0\\rAH=3.49974079\dih=2.16857855\\Version=ES64L-G16Rev
 C.01\State=2-A\HF=-916.0487658\S2=0.86997\S2-1=0.\S2A=0.758364\RMSD=2.
 987e-09\RMSF=8.616e-03\Dipole=1.5473168,-0.0609528,0.1576584\Quadrupol
 e=-1.0008442,-17.5476873,18.5485316,-12.9508699,-1.3894659,-3.24249\PG
 =C01 [X(C14H20O5)]\\@
 The archive entry for this job was punched.


 I DON'T EXACTLY UNDERSTAND WHAT YOU ARE SAYING,
 BUT YOU ARE ABSOLUTELY RIGHT.
     M.S.GORDON, IN A NDSU FACULTY MEETING
 Job cpu time:       0 days  1 hours 22 minutes 11.8 seconds.
 Elapsed time:       0 days  0 hours 20 minutes 41.9 seconds.
 File lengths (MBytes):  RWF=    176 Int=      0 D2E=      0 Chk=     16 Scr=      8
 Normal termination of Gaussian 16 at Tue Oct 26 23:24:20 2021.
