 Entering Gaussian System, Link 0=g16
 Initial command:
 /gpfs/loomis/apps/avx/software/Gaussian/16-C.01_AVX/g16/l1.exe "/home/jl3566/scratch60/g16/Gau-73125.inp" -scrdir="/home/jl3566/scratch60/g16/"
 Entering Link 1 = /gpfs/loomis/apps/avx/software/Gaussian/16-C.01_AVX/g16/l1.exe PID=     73126.
  
 Copyright (c) 1988-2019, Gaussian, Inc.  All Rights Reserved.
  
 This is part of the Gaussian(R) 16 program.  It is based on
 the Gaussian(R) 09 system (copyright 2009, Gaussian, Inc.),
 the Gaussian(R) 03 system (copyright 2003, Gaussian, Inc.),
 the Gaussian(R) 98 system (copyright 1998, Gaussian, Inc.),
 the Gaussian(R) 94 system (copyright 1995, Gaussian, Inc.),
 the Gaussian 92(TM) system (copyright 1992, Gaussian, Inc.),
 the Gaussian 90(TM) system (copyright 1990, Gaussian, Inc.),
 the Gaussian 88(TM) system (copyright 1988, Gaussian, Inc.),
 the Gaussian 86(TM) system (copyright 1986, Carnegie Mellon
 University), and the Gaussian 82(TM) system (copyright 1983,
 Carnegie Mellon University). Gaussian is a federally registered
 trademark of Gaussian, Inc.
  
 This software contains proprietary and confidential information,
 including trade secrets, belonging to Gaussian, Inc.
  
 This software is provided under written license and may be
 used, copied, transmitted, or stored only in accord with that
 written license.
  
 The following legend is applicable only to US Government
 contracts under FAR:
  
                    RESTRICTED RIGHTS LEGEND
  
 Use, reproduction and disclosure by the US Government is
 subject to restrictions as set forth in subparagraphs (a)
 and (c) of the Commercial Computer Software - Restricted
 Rights clause in FAR 52.227-19.
  
 Gaussian, Inc.
 340 Quinnipiac St., Bldg. 40, Wallingford CT 06492
  
  
 ---------------------------------------------------------------
 Warning -- This program may not be used in any manner that
 competes with the business of Gaussian, Inc. or will provide
 assistance to any competitor of Gaussian, Inc.  The licensee
 of this program is prohibited from giving any competitor of
 Gaussian, Inc. access to this program.  By using this program,
 the user acknowledges that Gaussian, Inc. is engaged in the
 business of creating and licensing software in the field of
 computational chemistry and represents and warrants to the
 licensee that it is not a competitor of Gaussian, Inc. and that
 it will not use this program in any manner prohibited above.
 ---------------------------------------------------------------
  

 Cite this work as:
 Gaussian 16, Revision C.01,
 M. J. Frisch, G. W. Trucks, H. B. Schlegel, G. E. Scuseria, 
 M. A. Robb, J. R. Cheeseman, G. Scalmani, V. Barone, 
 G. A. Petersson, H. Nakatsuji, X. Li, M. Caricato, A. V. Marenich, 
 J. Bloino, B. G. Janesko, R. Gomperts, B. Mennucci, H. P. Hratchian, 
 J. V. Ortiz, A. F. Izmaylov, J. L. Sonnenberg, D. Williams-Young, 
 F. Ding, F. Lipparini, F. Egidi, J. Goings, B. Peng, A. Petrone, 
 T. Henderson, D. Ranasinghe, V. G. Zakrzewski, J. Gao, N. Rega, 
 G. Zheng, W. Liang, M. Hada, M. Ehara, K. Toyota, R. Fukuda, 
 J. Hasegawa, M. Ishida, T. Nakajima, Y. Honda, O. Kitao, H. Nakai, 
 T. Vreven, K. Throssell, J. A. Montgomery, Jr., J. E. Peralta, 
 F. Ogliaro, M. J. Bearpark, J. J. Heyd, E. N. Brothers, K. N. Kudin, 
 V. N. Staroverov, T. A. Keith, R. Kobayashi, J. Normand, 
 K. Raghavachari, A. P. Rendell, J. C. Burant, S. S. Iyengar, 
 J. Tomasi, M. Cossi, J. M. Millam, M. Klene, C. Adamo, R. Cammi, 
 J. W. Ochterski, R. L. Martin, K. Morokuma, O. Farkas, 
 J. B. Foresman, and D. J. Fox, Gaussian, Inc., Wallingford CT, 2019.
 
 ******************************************
 Gaussian 16:  ES64L-G16RevC.01  3-Jul-2019
                26-Oct-2021 
 ******************************************
 %chk=Q1H-ACC-O2.chk
 %nproc=4
 Will use up to    4 processors via shared memory.
 %mem=4GB
 --------------------------------------------------------------
 # HF/6-31G* Opt=(Z-matrix,MaxCycles=100) Geom=PrintInputOrient
 --------------------------------------------------------------
 1/6=100,10=7,18=40,38=1/1,3;
 2/9=2000,12=2,17=6,18=5,29=3,40=1/2;
 3/5=1,6=6,7=1,11=9,25=1,30=1,71=1/1,2,3;
 4//1;
 5/5=2,38=5/2;
 6/7=2,8=2,9=2,10=2,28=1/1;
 7/29=1/1,2,3,16;
 1/6=100,10=7,18=40/3(2);
 2/9=2000,29=3/2;
 99//99;
 2/9=2000,29=3/2;
 3/5=1,6=6,7=1,11=9,25=1,30=1,71=1/1,2,3;
 4/5=5,16=3,69=1/1;
 5/5=2,38=5/2;
 7//1,2,3,16;
 1/6=100,18=40/3(-5);
 2/9=2000,29=3/2;
 6/7=2,8=2,9=2,10=2,19=2,28=1/1;
 99/9=1/99;
 -------------------------------------------------------------
 <qmtool> simtype="Geometry optimization" </qmtool> Q1H-ACC-O2
 -------------------------------------------------------------
 Symbolic Z-matrix:
 Charge = -1 Multiplicity = 2
 C1                   -0.227    -1.531    -0.656 
 C2                    0.284    -2.912    -0.982 
 C3                   -1.61     -1.462    -0.185 
 O4                   -2.335    -2.483    -0.066 
 C5                   -2.118    -0.13      0.128 
 O6                   -3.442     0.024     0.509 
 C7                   -1.328     0.988     0.009 
 O8                   -1.831     2.22      0.388 
 C9                    0.031     0.935    -0.497 
 O10                   0.722     2.005    -0.669 
 C11                   0.539    -0.394    -0.793 
 C12                   1.972    -0.43     -1.254 
 H13                   1.026    -3.261    -0.254 
 H14                  -0.563    -3.601    -0.959 
 H15                   0.755    -2.948    -1.97 
 C16                  -3.751    -0.635     1.741 
 H17                  -3.538    -1.702     1.67 
 H18                  -3.183    -0.184     2.566 
 H19                  -4.818    -0.468     1.909 
 C20                  -2.133     3.024    -0.75 
 H21                  -2.906     2.546    -1.365 
 H22                  -2.515     3.972    -0.361 
 H23                  -1.23      3.2      -1.34 
 H24                   2.102    -1.175    -2.053 
 H25                   2.212     0.55     -1.672 
 C26                   2.889    -0.783    -0.115 
 H27                   2.88     -1.834     0.179 
 C28                   3.763     1.535     0.327 
 C29                   3.671     0.053     0.582 
 H30                   4.676     1.784    -0.233 
 H31                   2.885     1.904    -0.207 
 C32                   4.543    -0.461     1.698 
 H33                   4.45     -1.546     1.814 
 H34                   5.599    -0.224     1.512 
 H35                   4.277     0.011     2.653 
 H36                   3.821     2.071     1.282 
 H1w                  O4   rAH      C5    148.27   C3   -180.     0
 x                    H1w   1.       O4    90.      C5    0.       0
 Ow                   H1w   0.9527   x     90.      O4    180.     0
 H2w                  Ow    0.9527   H1w   104.52   x    dih      0
       Variables:
  rAH                   2.                       
  dih                   0.                       
 

 GradGradGradGradGradGradGradGradGradGradGradGradGradGradGradGradGradGrad
 Berny optimization.
 Initialization pass.
                       ----------------------------
                       !    Initial Parameters    !
                       ! (Angstroms and Degrees)  !
 ----------------------                            ----------------------
 !      Name          Value   Derivative information (Atomic Units)     !
 ------------------------------------------------------------------------
 !       rAH         2.0      estimate D2E/DX2                          !
 !       dih         0.0      estimate D2E/DX2                          !
 ------------------------------------------------------------------------
 Trust Radius=3.00D-01 FncErr=1.00D-07 GrdErr=1.00D-07 EigMax=2.50D+02 EigMin=1.00D-04
 Number of steps in this run=    100 maximum allowed number of steps=    100.
 GradGradGradGradGradGradGradGradGradGradGradGradGradGradGradGradGradGrad

 ---------------------------------------------------------------------------------------------------
                            Z-MATRIX (ANGSTROMS AND DEGREES)
   CD    Cent   Atom    N1       Length/X        N2       Alpha/Y        N3        Beta/Z          J
 ---------------------------------------------------------------------------------------------------
      1      1  C        0  -0.227000         -1.531000         -0.656000
      2      2  C        0   0.284000         -2.912000         -0.982000
      3      3  C        0  -1.610000         -1.462000         -0.185000
      4      4  O        0  -2.335000         -2.483000         -0.066000
      5      5  C        0  -2.118000         -0.130000          0.128000
      6      6  O        0  -3.442000          0.024000          0.509000
      7      7  C        0  -1.328000          0.988000          0.009000
      8      8  O        0  -1.831000          2.220000          0.388000
      9      9  C        0   0.031000          0.935000         -0.497000
     10     10  O        0   0.722000          2.005000         -0.669000
     11     11  C        0   0.539000         -0.394000         -0.793000
     12     12  C        0   1.972000         -0.430000         -1.254000
     13     13  H        0   1.026000         -3.261000         -0.254000
     14     14  H        0  -0.563000         -3.601000         -0.959000
     15     15  H        0   0.755000         -2.948000         -1.970000
     16     16  C        0  -3.751000         -0.635000          1.741000
     17     17  H        0  -3.538000         -1.702000          1.670000
     18     18  H        0  -3.183000         -0.184000          2.566000
     19     19  H        0  -4.818000         -0.468000          1.909000
     20     20  C        0  -2.133000          3.024000         -0.750000
     21     21  H        0  -2.906000          2.546000         -1.365000
     22     22  H        0  -2.515000          3.972000         -0.361000
     23     23  H        0  -1.230000          3.200000         -1.340000
     24     24  H        0   2.102000         -1.175000         -2.053000
     25     25  H        0   2.212000          0.550000         -1.672000
     26     26  C        0   2.889000         -0.783000         -0.115000
     27     27  H        0   2.880000         -1.834000          0.179000
     28     28  C        0   3.763000          1.535000          0.327000
     29     29  C        0   3.671000          0.053000          0.582000
     30     30  H        0   4.676000          1.784000         -0.233000
     31     31  H        0   2.885000          1.904000         -0.207000
     32     32  C        0   4.543000         -0.461000          1.698000
     33     33  H        0   4.450000         -1.546000          1.814000
     34     34  H        0   5.599000         -0.224000          1.512000
     35     35  H        0   4.277000          0.011000          2.653000
     36     36  H        0   3.821000          2.071000          1.282000
     37     37  H        4   2.000000(    36)      5  148.270(    74)      3 -180.000(   111)      0
     38         X       37   1.000000(    37)      4   90.000(    75)      5    0.000(   112)      0
     39     38  O       37   0.952700(    38)     38   90.000(    76)      4  180.000(   113)      0
     40     39  H       39   0.952700(    39)     37  104.520(    77)     38    0.000(   114)      0
 ---------------------------------------------------------------------------------------------------
                         Z-Matrix orientation:                         
 ---------------------------------------------------------------------
 Center     Atomic      Atomic             Coordinates (Angstroms)
 Number     Number       Type             X           Y           Z
 ---------------------------------------------------------------------
      1          6           0       -0.227000   -1.531000   -0.656000
      2          6           0        0.284000   -2.912000   -0.982000
      3          6           0       -1.610000   -1.462000   -0.185000
      4          8           0       -2.335000   -2.483000   -0.066000
      5          6           0       -2.118000   -0.130000    0.128000
      6          8           0       -3.442000    0.024000    0.509000
      7          6           0       -1.328000    0.988000    0.009000
      8          8           0       -1.831000    2.220000    0.388000
      9          6           0        0.031000    0.935000   -0.497000
     10          8           0        0.722000    2.005000   -0.669000
     11          6           0        0.539000   -0.394000   -0.793000
     12          6           0        1.972000   -0.430000   -1.254000
     13          1           0        1.026000   -3.261000   -0.254000
     14          1           0       -0.563000   -3.601000   -0.959000
     15          1           0        0.755000   -2.948000   -1.970000
     16          6           0       -3.751000   -0.635000    1.741000
     17          1           0       -3.538000   -1.702000    1.670000
     18          1           0       -3.183000   -0.184000    2.566000
     19          1           0       -4.818000   -0.468000    1.909000
     20          6           0       -2.133000    3.024000   -0.750000
     21          1           0       -2.906000    2.546000   -1.365000
     22          1           0       -2.515000    3.972000   -0.361000
     23          1           0       -1.230000    3.200000   -1.340000
     24          1           0        2.102000   -1.175000   -2.053000
     25          1           0        2.212000    0.550000   -1.672000
     26          6           0        2.889000   -0.783000   -0.115000
     27          1           0        2.880000   -1.834000    0.179000
     28          6           0        3.763000    1.535000    0.327000
     29          6           0        3.671000    0.053000    0.582000
     30          1           0        4.676000    1.784000   -0.233000
     31          1           0        2.885000    1.904000   -0.207000
     32          6           0        4.543000   -0.461000    1.698000
     33          1           0        4.450000   -1.546000    1.814000
     34          1           0        5.599000   -0.224000    1.512000
     35          1           0        4.277000    0.011000    2.653000
     36          1           0        3.821000    2.071000    1.282000
     37          1           0       -3.487826   -4.106324    0.123242
     38         -1           0       -4.245997   -3.531922    0.431851
     39          8           0       -4.036975   -4.879594    0.213387
     40          1           0       -4.873895   -4.543712    0.520610
 ---------------------------------------------------------------------
                    Distance matrix (angstroms):
                    1          2          3          4          5
     1  C    0.000000
     2  C    1.508164   0.000000
     3  C    1.462632   2.514944   0.000000
     4  O    2.387063   2.807536   1.257866   0.000000
     5  C    2.480592   3.839431   1.459540   2.370935   0.000000
     6  O    3.756524   4.972550   2.458873   2.800201   1.386309
     7  C    2.828389   4.334815   2.473795   3.614902   1.374112
     8  O    4.211028   5.717303   3.732867   4.751667   2.381695
     9  C    2.484552   3.885697   2.921615   4.179287   2.478518
    10  O    3.661157   4.946383   4.206254   5.463607   3.641296
    11  C    1.377786   2.537926   2.475579   3.626614   2.824462
    12  C    2.530890   3.013910   3.877952   4.916951   4.327589
    13  H    2.173594   1.096517   3.192124   3.454989   4.453518
    14  H    2.118869   1.092089   2.504118   2.277577   3.955684
    15  H    2.167674   1.095117   3.314762   3.659172   4.538376
    16  C    4.355112   5.374075   2.996212   2.947102   2.350209
    17  H    4.049968   4.806754   2.686226   2.251858   2.620181
    18  H    4.575328   5.661305   3.416960   3.596099   2.661012
    19  H    5.365303   6.353064   3.957794   3.758476   3.252108
    20  C    4.938593   6.413408   4.551588   5.552991   3.273962
    21  H    4.929670   6.333447   4.374481   5.225350   3.164012
    22  H    5.966991   7.457177   5.511656   6.464244   4.150076
    23  H    4.884284   6.306893   4.817953   5.927950   3.745994
    24  H    2.739085   2.733008   4.165422   5.034481   4.863865
    25  H    3.363263   4.022279   4.568041   5.696800   4.738280
    26  C    3.249868   3.474242   4.550488   5.493867   5.055245
    27  H    3.231483   3.041253   4.520064   5.260936   5.280741
    28  C    5.127060   5.795924   6.173596   7.313301   6.115389
    29  C    4.385898   4.765406   5.547294   6.551583   5.809658
    30  H    5.933596   6.473259   7.074787   8.209099   7.067684
    31  H    4.656755   5.528081   5.615645   6.820121   5.411043
    32  C    5.425783   5.597221   6.512074   7.382890   6.851524
    33  H    5.289183   5.199916   6.381744   7.102717   6.927213
    34  H    6.352224   6.457136   7.508804   8.398900   7.840688
    35  H    5.797694   6.140131   6.699309   7.571759   6.876884
    36  H    5.754698   6.516621   6.643037   7.775111   6.438000
    37  H    4.227588   4.107875   3.257866   2.000000   4.205662
    38  X    4.619463   4.785828   3.407867   2.236068   4.024148
    39  O    5.146341   4.896039   4.210566   2.952700   5.123319
    40  H    5.661667   5.614642   4.543990   3.322143   5.218233
                    6          7          8          9         10
     6  O    0.000000
     7  C    2.376614   0.000000
     8  O    2.726239   1.383645   0.000000
     9  C    3.728765   1.451112   2.429299   0.000000
    10  O    4.759300   2.386729   2.771513   1.285288   0.000000
    11  C    4.209310   2.457400   3.720841   1.453245   2.409163
    12  C    5.711889   3.807347   4.917466   2.490734   2.798920
    13  H    5.597894   4.864616   6.214175   4.319200   5.291068
    14  H    4.856366   4.751965   6.107886   4.597997   5.758695
    15  H    5.709031   4.873133   6.241457   4.215637   5.121123
    16  C    1.430939   3.391885   3.697030   4.666591   5.725856
    17  H    2.082358   3.857346   4.465362   4.938362   6.112313
    18  H    2.083649   3.369400   3.514371   4.578638   5.523221
    19  H    2.023719   4.232025   4.296621   5.591963   6.591920
    20  C    3.506931   2.317197   1.425715   3.018414   3.032482
    21  H    3.187422   2.608702   2.082045   3.460450   3.733561
    22  H    4.147642   3.232665   2.024441   3.965348   3.800279
    23  H    4.289373   2.592749   2.075472   2.725985   2.385072
    24  H    6.223936   4.549210   5.740470   3.340999   3.732594
    25  H    6.082857   3.943248   4.835116   2.507112   2.311522
    26  C    6.412658   4.575468   5.616887   3.356428   3.574318
    27  H    6.597632   5.069502   6.218691   4.030030   4.484862
    28  C    7.363985   5.130167   5.636114   3.868695   3.234285
    29  C    7.113434   5.117866   5.916547   3.897661   3.751254
    30  H    8.339670   6.061369   6.551091   4.729326   3.984100
    31  H    6.639125   4.316837   4.763878   3.027933   2.214094
    32  C    8.087594   6.278612   7.037879   5.208165   5.126781
    33  H    8.151784   6.562352   7.461045   5.569887   5.716019
    34  H    9.099846   7.191056   7.901988   6.031748   5.788811
    35  H    8.011234   6.273858   6.878777   5.367010   5.258303
    36  H    7.585440   5.413467   5.724207   4.338138   3.662589
    37  H    4.148552   5.534441   6.545039   6.179141   7.463147
    38  X    3.646497   5.396591   6.238488   6.253707   7.519998
    39  O    4.948395   6.465986   7.436467   7.131800   8.415705
    40  H    4.786904   6.590520   7.417857   7.423598   8.695680
                   11         12         13         14         15
    11  C    0.000000
    12  C    1.505758   0.000000
    13  H    2.957597   3.147932   0.000000
    14  H    3.395116   4.070441   1.771312   0.000000
    15  H    2.820443   2.886879   1.765238   1.784840   0.000000
    16  C    4.988320   6.462567   5.804794   5.123524   6.278975
    17  H    4.939551   6.366150   5.192529   4.400962   5.764717
    18  H    5.017994   6.420821   5.927564   5.564703   6.612325
    19  H    6.000311   7.490668   6.828745   6.012166   7.228787
    20  C    4.338681   5.388428   7.051703   6.811696   6.744904
    21  H    4.564954   5.715224   7.100436   6.590910   6.629704
    22  H    5.345605   6.348876   8.053969   7.843356   7.821009
    23  H    4.042945   4.841188   6.929174   6.844242   6.491150
    24  H    2.154189   1.100148   2.957291   3.766237   2.228189
    25  H    2.112512   1.092119   4.235687   5.043788   3.801007
    26  C    2.476591   1.504267   3.103317   4.535390   3.561208
    27  H    2.915247   2.202083   2.379314   4.033805   3.220997
    28  C    3.920410   3.093294   5.552508   6.837146   5.866989
    29  C    3.449617   2.547702   4.321749   5.801134   4.901200
    30  H    4.708721   3.640859   6.226955   7.548008   6.386175
    31  H    3.335853   2.716125   5.489564   6.539055   5.584530
    32  C    4.716099   3.914755   4.900979   6.556713   5.829952
    33  H    4.839367   4.098605   4.352198   6.086273   5.471497
    34  H    5.562870   4.565996   5.766667   7.448504   6.558112
    35  H    5.100155   4.557648   5.452122   7.036952   6.521679
    36  H    4.599280   4.013116   6.213014   7.510867   6.720582
    37  H    5.553033   6.724719   4.607766   3.159305   4.870826
    38  X    5.851752   7.150349   5.323320   3.937474   5.578514
    39  O    6.486364   7.619704   5.335917   3.883014   5.609034
    40  H    6.945870   8.181573   6.087210   4.654220   6.358765
                   16         17         18         19         20
    16  C    0.000000
    17  H    1.090366   0.000000
    18  H    1.098476   1.798100   0.000000
    19  H    1.092978   1.793956   1.784805   0.000000
    20  C    4.712885   5.492313   4.731767   5.145247   0.000000
    21  H    4.525486   5.258912   4.793995   4.843451   1.097378
    22  H    5.212538   6.112754   5.126976   5.492750   1.093595
    23  H    5.527678   6.198110   5.524717   6.073217   1.092925
    24  H    6.995973   6.778500   7.088615   8.005229   6.104476
    25  H    6.972099   7.021607   6.899668   7.954922   5.084268
    26  C    6.896103   6.733284   6.664514   7.974562   6.333795
    27  H    6.917196   6.590238   6.721625   8.007375   7.042256
    28  C    7.947861   8.098544   7.497666   8.952558   6.175748
    29  C    7.543388   7.498897   7.139310   8.607874   6.654884
    30  H    8.986800   9.123782   8.571541   9.989780   6.940272
    31  H    7.367341   7.601401   6.990701   8.333069   5.170065
    32  C    8.295937   8.175783   7.779539   9.363380   7.918769
    33  H    8.251766   7.990821   7.789945   9.330966   8.413969
    34  H    9.361830   9.257117   8.845114  10.427417   8.686194
    35  H    8.105421   8.060700   7.463055   9.137943   7.857905
    36  H    8.054086   8.278947   7.469250   9.026183   6.362967
    37  H    3.838814   2.859327   4.630832   4.265641   7.310241
    38  X    3.217304   2.320105   4.110126   3.449170   6.988679
    39  O    4.520173   3.530977   5.320964   4.790330   8.186576
    40  H    4.245972   3.343806   5.103904   4.306064   8.148449
                   21         22         23         24         25
    21  H    0.000000
    22  H    1.787281   0.000000
    23  H    1.799254   1.790433   0.000000
    24  H    6.276882   7.118368   5.545378   0.000000
    25  H    5.502017   5.981081   4.356614   1.769996   0.000000
    26  C    6.799027   7.202344   5.859273   2.128116   2.158580
    27  H    7.419308   7.944008   6.673876   2.453852   3.091259
    28  C    6.954175   6.769461   5.520975   3.970821   2.715111
    29  C    7.298136   7.383387   6.133310   3.303478   2.730606
    30  H    7.703817   7.517593   6.173438   4.323605   3.108822
    31  H    5.940438   5.784491   4.460553   3.674377   2.105343
    32  C    8.597187   8.585240   7.480635   4.531918   4.220496
    33  H    8.997846   9.148233   8.045783   4.539211   4.642635
    34  H    9.396013   9.324781   8.154319   5.083565   4.712611
    35  H    8.611971   8.420510   7.512711   5.318238   4.822901
    36  H    7.244637   6.816021   5.801907   4.961220   3.691672
    37  H    6.841549   8.151085   7.785963   6.676439   7.575768
    38  X    6.478070   7.741692   7.586466   7.212948   7.924266
    39  O    7.675276   8.999836   8.693213   7.519810   8.490280
    40  H    7.595535   8.880257   8.758134   8.163014   8.997963
                   26         27         28         29         30
    26  C    0.000000
    27  H    1.091384   0.000000
    28  C    2.516419   3.485937   0.000000
    29  C    1.340235   2.085392   1.506590   0.000000
    30  H    3.129981   4.060207   1.099623   2.161160   0.000000
    31  H    2.688578   3.757880   1.091880   2.160213   1.795204
    32  C    2.475150   2.637813   2.544024   1.506664   2.964199
    33  H    2.596138   2.284966   3.489369   2.163669   3.915378
    34  H    3.209939   3.429570   2.805210   2.158428   2.815851
    35  H    3.196687   3.387670   2.827905   2.158250   3.410532
    36  H    3.311427   4.165467   1.096670   2.141220   1.763128
    37  H    7.194800   6.761344   9.189153   8.292118  10.073276
    38  X    7.665754   7.329850   9.477801   8.692125  10.406876
    39  O    8.053511   7.557868  10.099482   9.158561  10.978100
    40  H    8.649248   8.220835  10.563341   9.703028  11.480782
                   31         32         33         34         35
    31  H    0.000000
    32  C    3.459944   0.000000
    33  H    4.293736   1.095139   0.000000
    34  H    3.853458   1.098135   1.777383   0.000000
    35  H    3.701448   1.097982   1.777104   1.762042   0.000000
    36  H    1.766665   2.665589   3.709630   2.912252   2.516183
    37  H    8.766183   8.958930   8.510170   9.978552   9.145740
    38  X    8.989354   9.395752   9.026327  10.441888   9.493538
    39  O    9.700907   9.764426   9.257621  10.780211   9.949462
    40  H   10.114488  10.331152   9.878975  11.372084  10.441809
                   36         37         38         39         40
    36  H    0.000000
    37  H    9.639553   0.000000
    38  X    9.858596   1.000000   0.000000
    39  O   10.545163   0.952700   1.381172   0.000000
    40  H   10.951499   1.506783   1.194092   0.952700   0.000000
 Stoichiometry    C14H20O5(1-,2)
 Framework group  C1[X(C14H20O5)]
 Deg. of freedom   111
 Full point group                 C1      NOp   1
 Largest Abelian subgroup         C1      NOp   1
 Largest concise Abelian subgroup C1      NOp   1
                         Standard orientation:                         
 ---------------------------------------------------------------------
 Center     Atomic      Atomic             Coordinates (Angstroms)
 Number     Number       Type             X           Y           Z
 ---------------------------------------------------------------------
      1          6           0       -0.329608   -1.141218   -0.695439
      2          6           0       -0.291475   -2.607678   -1.045579
      3          6           0       -1.620619   -0.633969   -0.231457
      4          8           0       -2.639569   -1.365435   -0.136983
      5          6           0       -1.671689    0.785405    0.104736
      6          8           0       -2.878187    1.355330    0.480769
      7          6           0       -0.559738    1.587437    0.012567
      8          8           0       -0.639390    2.909534    0.412801
      9          6           0        0.714204    1.103708   -0.486236
     10          8           0        1.717576    1.893449   -0.632935
     11          6           0        0.766044   -0.313114   -0.805374
     12          6           0        2.114944   -0.805595   -1.258407
     13          1           0        0.287887   -3.191192   -0.320183
     14          1           0       -1.316684   -2.983958   -1.041260
     15          1           0        0.154133   -2.778407   -2.031260
     16          6           0       -3.399522    0.812183    1.697645
     17          1           0       -3.544167   -0.264728    1.606867
     18          1           0       -2.725761    1.040019    2.534775
     19          1           0       -4.356202    1.314360    1.862518
     20          6           0       -0.649804    3.786960   -0.710889
     21          1           0       -1.528727    3.596770   -1.339825
     22          1           0       -0.707497    4.801017   -0.305540
     23          1           0        0.268418    3.669484   -1.291883
     24          1           0        2.005303   -1.538890   -2.071169
     25          1           0        2.665564    0.049879   -1.655531
     26          6           0        2.853517   -1.456692   -0.121130
     27          1           0        2.499743   -2.452363    0.152001
     28          6           0        4.428275    0.443188    0.371779
     29          6           0        3.856357   -0.932326    0.596911
     30          1           0        5.379325    0.390976   -0.177719
     31          1           0        3.724471    1.086608   -0.160078
     32          6           0        4.500311   -1.720620    1.707745
     33          1           0        4.058203   -2.718134    1.801739
     34          1           0        5.578160   -1.836950    1.532786
     35          1           0        4.390705   -1.203803    2.670269
     36          1           0        4.645850    0.915117    1.337506
     37          1           0       -4.259750   -2.528380    0.013264
     38          8           0       -5.031523   -3.082348    0.084833
     39          1           0       -5.717415   -2.497673    0.393612
 ---------------------------------------------------------------------
 Rotational constants (GHZ):           0.4497094           0.2327520           0.1730924
 Standard basis: 6-31G(d) (6D, 7F)
 There are   325 symmetry adapted cartesian basis functions of A   symmetry.
 There are   325 symmetry adapted basis functions of A   symmetry.
   325 basis functions,   612 primitive gaussians,   325 cartesian basis functions
    73 alpha electrons       72 beta electrons
       nuclear repulsion energy      1484.5454196972 Hartrees.
 NAtoms=   39 NActive=   39 NUniq=   39 SFac= 1.00D+00 NAtFMM=   60 NAOKFM=F Big=F
 Integral buffers will be    131072 words long.
 Raffenetti 2 integral format.
 Two-electron integral symmetry is turned on.
 One-electron integrals computed using PRISM.
 NBasis=   325 RedAO= T EigKep=  3.08D-04  NBF=   325
 NBsUse=   325 1.00D-06 EigRej= -1.00D+00 NBFU=   325
 ExpMin= 1.61D-01 ExpMax= 5.48D+03 ExpMxC= 8.25D+02 IAcc=3 IRadAn=         5 AccDes= 0.00D+00
 Harris functional with IExCor=  205 and IRadAn=       5 diagonalized for initial guess.
 HarFok:  IExCor=  205 AccDes= 0.00D+00 IRadAn=         5 IDoV= 1 UseB2=F ITyADJ=14
 ICtDFT=  3500011 ScaDFX=  1.000000  1.000000  1.000000  1.000000
 FoFCou: FMM=F IPFlag=           0 FMFlag=      100000 FMFlg1=           0
         NFxFlg=           0 DoJE=T BraDBF=F KetDBF=T FulRan=T
         wScrn=  0.000000 ICntrl=       500 IOpCl=  0 I1Cent=   200000004 NGrid=           0
         NMat0=    1 NMatS0=      1 NMatT0=    0 NMatD0=    1 NMtDS0=    0 NMtDT0=    0
 Petite list used in FoFCou.
 Initial guess <Sx>= 0.0000 <Sy>= 0.0000 <Sz>= 0.5000 <S**2>= 0.7500 S= 0.5000
 Requested convergence on RMS density matrix=1.00D-08 within 128 cycles.
 Requested convergence on MAX density matrix=1.00D-06.
 Requested convergence on             energy=1.00D-06.
 No special actions if energy rises.
 Integral accuracy reduced to 1.0D-05 until final iterations.
 Initial convergence to 1.4D-05 achieved.  Increase integral accuracy.
 Restarting incremental Fock formation.
 SCF Done:  E(UHF) =  -916.058817890     A.U. after   48 cycles
            NFock= 48  Conv=0.81D-08     -V/T= 2.0020
 <Sx>= 0.0000 <Sy>= 0.0000 <Sz>= 0.5000 <S**2>= 0.8638 S= 0.5554
 <L.S>=  0.00000000000    
 Annihilation of the first spin contaminant:
 S**2 before annihilation     0.8638,   after     0.7572

 **********************************************************************

            Population analysis using the SCF Density.

 **********************************************************************

 Orbital symmetries:
 Alpha Orbitals:
       Occupied  (A) (A) (A) (A) (A) (A) (A) (A) (A) (A) (A) (A)
                 (A) (A) (A) (A) (A) (A) (A) (A) (A) (A) (A) (A)
                 (A) (A) (A) (A) (A) (A) (A) (A) (A) (A) (A) (A)
                 (A) (A) (A) (A) (A) (A) (A) (A) (A) (A) (A) (A)
                 (A) (A) (A) (A) (A) (A) (A) (A) (A) (A) (A) (A)
                 (A) (A) (A) (A) (A) (A) (A) (A) (A) (A) (A) (A)
                 (A)
       Virtual   (A) (A) (A) (A) (A) (A) (A) (A) (A) (A) (A) (A)
                 (A) (A) (A) (A) (A) (A) (A) (A) (A) (A) (A) (A)
                 (A) (A) (A) (A) (A) (A) (A) (A) (A) (A) (A) (A)
                 (A) (A) (A) (A) (A) (A) (A) (A) (A) (A) (A) (A)
                 (A) (A) (A) (A) (A) (A) (A) (A) (A) (A) (A) (A)
                 (A) (A) (A) (A) (A) (A) (A) (A) (A) (A) (A) (A)
                 (A) (A) (A) (A) (A) (A) (A) (A) (A) (A) (A) (A)
                 (A) (A) (A) (A) (A) (A) (A) (A) (A) (A) (A) (A)
                 (A) (A) (A) (A) (A) (A) (A) (A) (A) (A) (A) (A)
                 (A) (A) (A) (A) (A) (A) (A) (A) (A) (A) (A) (A)
                 (A) (A) (A) (A) (A) (A) (A) (A) (A) (A) (A) (A)
                 (A) (A) (A) (A) (A) (A) (A) (A) (A) (A) (A) (A)
                 (A) (A) (A) (A) (A) (A) (A) (A) (A) (A) (A) (A)
                 (A) (A) (A) (A) (A) (A) (A) (A) (A) (A) (A) (A)
                 (A) (A) (A) (A) (A) (A) (A) (A) (A) (A) (A) (A)
                 (A) (A) (A) (A) (A) (A) (A) (A) (A) (A) (A) (A)
                 (A) (A) (A) (A) (A) (A) (A) (A) (A) (A) (A) (A)
                 (A) (A) (A) (A) (A) (A) (A) (A) (A) (A) (A) (A)
                 (A) (A) (A) (A) (A) (A) (A) (A) (A) (A) (A) (A)
                 (A) (A) (A) (A) (A) (A) (A) (A) (A) (A) (A) (A)
                 (A) (A) (A) (A) (A) (A) (A) (A) (A) (A) (A) (A)
 Beta  Orbitals:
       Occupied  (A) (A) (A) (A) (A) (A) (A) (A) (A) (A) (A) (A)
                 (A) (A) (A) (A) (A) (A) (A) (A) (A) (A) (A) (A)
                 (A) (A) (A) (A) (A) (A) (A) (A) (A) (A) (A) (A)
                 (A) (A) (A) (A) (A) (A) (A) (A) (A) (A) (A) (A)
                 (A) (A) (A) (A) (A) (A) (A) (A) (A) (A) (A) (A)
                 (A) (A) (A) (A) (A) (A) (A) (A) (A) (A) (A) (A)
       Virtual   (A) (A) (A) (A) (A) (A) (A) (A) (A) (A) (A) (A)
                 (A) (A) (A) (A) (A) (A) (A) (A) (A) (A) (A) (A)
                 (A) (A) (A) (A) (A) (A) (A) (A) (A) (A) (A) (A)
                 (A) (A) (A) (A) (A) (A) (A) (A) (A) (A) (A) (A)
                 (A) (A) (A) (A) (A) (A) (A) (A) (A) (A) (A) (A)
                 (A) (A) (A) (A) (A) (A) (A) (A) (A) (A) (A) (A)
                 (A) (A) (A) (A) (A) (A) (A) (A) (A) (A) (A) (A)
                 (A) (A) (A) (A) (A) (A) (A) (A) (A) (A) (A) (A)
                 (A) (A) (A) (A) (A) (A) (A) (A) (A) (A) (A) (A)
                 (A) (A) (A) (A) (A) (A) (A) (A) (A) (A) (A) (A)
                 (A) (A) (A) (A) (A) (A) (A) (A) (A) (A) (A) (A)
                 (A) (A) (A) (A) (A) (A) (A) (A) (A) (A) (A) (A)
                 (A) (A) (A) (A) (A) (A) (A) (A) (A) (A) (A) (A)
                 (A) (A) (A) (A) (A) (A) (A) (A) (A) (A) (A) (A)
                 (A) (A) (A) (A) (A) (A) (A) (A) (A) (A) (A) (A)
                 (A) (A) (A) (A) (A) (A) (A) (A) (A) (A) (A) (A)
                 (A) (A) (A) (A) (A) (A) (A) (A) (A) (A) (A) (A)
                 (A) (A) (A) (A) (A) (A) (A) (A) (A) (A) (A) (A)
                 (A) (A) (A) (A) (A) (A) (A) (A) (A) (A) (A) (A)
                 (A) (A) (A) (A) (A) (A) (A) (A) (A) (A) (A) (A)
                 (A) (A) (A) (A) (A) (A) (A) (A) (A) (A) (A) (A)
                 (A)
 The electronic state is 2-A.
 Alpha  occ. eigenvalues --  -20.44403 -20.44289 -20.42119 -20.40168 -20.37208
 Alpha  occ. eigenvalues --  -11.15367 -11.15241 -11.15203 -11.15132 -11.14855
 Alpha  occ. eigenvalues --  -11.14240 -11.12652 -11.12363 -11.11106 -11.10410
 Alpha  occ. eigenvalues --  -11.10348 -11.10311 -11.09607 -11.09341  -1.26822
 Alpha  occ. eigenvalues --   -1.24577  -1.20952  -1.20620  -1.19756  -1.00226
 Alpha  occ. eigenvalues --   -0.97802  -0.91584  -0.88168  -0.83538  -0.82957
 Alpha  occ. eigenvalues --   -0.82020  -0.79339  -0.76419  -0.74360  -0.64830
 Alpha  occ. eigenvalues --   -0.64388  -0.59741  -0.57871  -0.57739  -0.54323
 Alpha  occ. eigenvalues --   -0.53250  -0.52104  -0.51409  -0.49857  -0.49293
 Alpha  occ. eigenvalues --   -0.48970  -0.48495  -0.48322  -0.46358  -0.46133
 Alpha  occ. eigenvalues --   -0.45030  -0.44011  -0.43392  -0.43195  -0.42443
 Alpha  occ. eigenvalues --   -0.41786  -0.41126  -0.40543  -0.39865  -0.39547
 Alpha  occ. eigenvalues --   -0.38567  -0.37533  -0.37332  -0.36460  -0.35639
 Alpha  occ. eigenvalues --   -0.33109  -0.32329  -0.28175  -0.27510  -0.25828
 Alpha  occ. eigenvalues --   -0.22252  -0.18744  -0.10796
 Alpha virt. eigenvalues --    0.27156   0.29772   0.31949   0.33363   0.34168
 Alpha virt. eigenvalues --    0.35554   0.37646   0.38568   0.39143   0.39894
 Alpha virt. eigenvalues --    0.40881   0.41381   0.41974   0.42797   0.42999
 Alpha virt. eigenvalues --    0.43657   0.43883   0.45412   0.45656   0.46163
 Alpha virt. eigenvalues --    0.46406   0.47694   0.50097   0.50469   0.50923
 Alpha virt. eigenvalues --    0.52119   0.53954   0.54839   0.55782   0.58061
 Alpha virt. eigenvalues --    0.58643   0.62445   0.64095   0.64315   0.68067
 Alpha virt. eigenvalues --    0.68942   0.71784   0.74541   0.74993   0.76295
 Alpha virt. eigenvalues --    0.80133   0.81900   0.82679   0.83853   0.85844
 Alpha virt. eigenvalues --    0.86677   0.87973   0.88468   0.88604   0.89598
 Alpha virt. eigenvalues --    0.89977   0.91054   0.91395   0.92408   0.93848
 Alpha virt. eigenvalues --    0.95275   0.95469   0.97287   0.98253   0.98477
 Alpha virt. eigenvalues --    1.02201   1.02550   1.04892   1.06098   1.06759
 Alpha virt. eigenvalues --    1.07172   1.08258   1.09629   1.10100   1.11006
 Alpha virt. eigenvalues --    1.11346   1.12833   1.14717   1.15558   1.16446
 Alpha virt. eigenvalues --    1.17645   1.17985   1.19486   1.21517   1.22855
 Alpha virt. eigenvalues --    1.23293   1.23742   1.24354   1.24732   1.25118
 Alpha virt. eigenvalues --    1.26376   1.26579   1.27312   1.27406   1.28066
 Alpha virt. eigenvalues --    1.29420   1.29662   1.29982   1.30693   1.30756
 Alpha virt. eigenvalues --    1.31279   1.33399   1.33713   1.34089   1.34557
 Alpha virt. eigenvalues --    1.37039   1.37417   1.38520   1.39391   1.41096
 Alpha virt. eigenvalues --    1.41997   1.42304   1.45598   1.48536   1.48743
 Alpha virt. eigenvalues --    1.50153   1.51259   1.53000   1.53318   1.55088
 Alpha virt. eigenvalues --    1.55854   1.57127   1.58074   1.59703   1.60812
 Alpha virt. eigenvalues --    1.62777   1.64957   1.65654   1.66595   1.70999
 Alpha virt. eigenvalues --    1.72859   1.74636   1.76656   1.78095   1.79590
 Alpha virt. eigenvalues --    1.80696   1.81954   1.83450   1.84199   1.85968
 Alpha virt. eigenvalues --    1.86600   1.87272   1.89107   1.91441   1.93163
 Alpha virt. eigenvalues --    1.95651   1.99662   2.03025   2.05211   2.08566
 Alpha virt. eigenvalues --    2.11168   2.13906   2.14522   2.15383   2.16452
 Alpha virt. eigenvalues --    2.17125   2.18616   2.19596   2.19852   2.19939
 Alpha virt. eigenvalues --    2.23280   2.24007   2.25855   2.26069   2.27333
 Alpha virt. eigenvalues --    2.27953   2.30452   2.31747   2.32586   2.33332
 Alpha virt. eigenvalues --    2.34180   2.36543   2.38086   2.39667   2.40756
 Alpha virt. eigenvalues --    2.41329   2.44283   2.46106   2.47146   2.49846
 Alpha virt. eigenvalues --    2.50498   2.52421   2.53041   2.54710   2.55252
 Alpha virt. eigenvalues --    2.55618   2.58536   2.60254   2.60572   2.62425
 Alpha virt. eigenvalues --    2.65323   2.66538   2.67896   2.67983   2.69665
 Alpha virt. eigenvalues --    2.70847   2.72830   2.73605   2.74040   2.78396
 Alpha virt. eigenvalues --    2.80639   2.81784   2.83392   2.83595   2.84692
 Alpha virt. eigenvalues --    2.85425   2.86527   2.88215   2.90002   2.93023
 Alpha virt. eigenvalues --    2.94003   2.94091   2.96856   2.99708   3.01545
 Alpha virt. eigenvalues --    3.04058   3.07603   3.09011   3.11731   3.12443
 Alpha virt. eigenvalues --    3.12821   3.15793   3.16893   3.22790   3.26246
 Alpha virt. eigenvalues --    3.30622   3.31871   3.37187   3.42234   3.46455
 Alpha virt. eigenvalues --    3.46810   3.52271   3.52603   3.56647   3.58416
 Alpha virt. eigenvalues --    3.63513   3.85913   3.93029   4.23499   4.39250
 Alpha virt. eigenvalues --    4.55952   4.63404   4.67293   4.74664   4.76648
 Alpha virt. eigenvalues --    4.78142   4.80563   4.81842   4.83135   4.91106
 Alpha virt. eigenvalues --    4.92360   4.98722   5.05372   5.12105   5.22992
 Alpha virt. eigenvalues --    5.37254   5.81353
  Beta  occ. eigenvalues --  -20.44405 -20.44287 -20.42124 -20.38223 -20.35869
  Beta  occ. eigenvalues --  -11.15516 -11.15220 -11.15153 -11.14893 -11.14535
  Beta  occ. eigenvalues --  -11.14395 -11.12665 -11.12257 -11.11170 -11.10451
  Beta  occ. eigenvalues --  -11.10363 -11.09931 -11.09774 -11.09331  -1.26651
  Beta  occ. eigenvalues --   -1.24365  -1.20893  -1.17080  -1.16340  -0.99675
  Beta  occ. eigenvalues --   -0.97078  -0.91294  -0.87942  -0.83319  -0.82466
  Beta  occ. eigenvalues --   -0.81763  -0.78941  -0.74934  -0.74140  -0.64279
  Beta  occ. eigenvalues --   -0.63678  -0.59630  -0.57721  -0.57706  -0.54020
  Beta  occ. eigenvalues --   -0.53005  -0.51859  -0.50930  -0.49557  -0.49102
  Beta  occ. eigenvalues --   -0.48801  -0.48335  -0.47856  -0.45756  -0.45246
  Beta  occ. eigenvalues --   -0.44569  -0.43553  -0.43058  -0.42643  -0.41764
  Beta  occ. eigenvalues --   -0.40886  -0.40039  -0.39495  -0.38499  -0.38125
  Beta  occ. eigenvalues --   -0.37071  -0.36493  -0.36101  -0.35062  -0.33082
  Beta  occ. eigenvalues --   -0.31551  -0.30262  -0.26173  -0.24808  -0.22215
  Beta  occ. eigenvalues --   -0.18366  -0.17711
  Beta virt. eigenvalues --    0.20235   0.28962   0.31998   0.33605   0.34148
  Beta virt. eigenvalues --    0.35410   0.37463   0.37924   0.38715   0.39862
  Beta virt. eigenvalues --    0.40118   0.41036   0.41655   0.42099   0.42926
  Beta virt. eigenvalues --    0.43143   0.43693   0.43976   0.45490   0.45926
  Beta virt. eigenvalues --    0.46227   0.46542   0.48065   0.50481   0.50752
  Beta virt. eigenvalues --    0.51290   0.52798   0.54139   0.54969   0.56283
  Beta virt. eigenvalues --    0.58417   0.59303   0.62960   0.64578   0.64885
  Beta virt. eigenvalues --    0.68565   0.69204   0.71899   0.74880   0.75204
  Beta virt. eigenvalues --    0.76665   0.80416   0.82107   0.82840   0.84304
  Beta virt. eigenvalues --    0.85886   0.86822   0.88069   0.88640   0.88748
  Beta virt. eigenvalues --    0.89633   0.90104   0.91166   0.91507   0.92404
  Beta virt. eigenvalues --    0.94494   0.95506   0.95747   0.97484   0.98504
  Beta virt. eigenvalues --    0.98806   1.02178   1.02841   1.05116   1.06357
  Beta virt. eigenvalues --    1.06876   1.07615   1.08368   1.09849   1.10429
  Beta virt. eigenvalues --    1.11101   1.11619   1.12960   1.14835   1.15793
  Beta virt. eigenvalues --    1.16524   1.17919   1.18403   1.19761   1.21767
  Beta virt. eigenvalues --    1.22963   1.23433   1.23818   1.24401   1.24850
  Beta virt. eigenvalues --    1.25229   1.26526   1.27011   1.27444   1.27620
  Beta virt. eigenvalues --    1.28177   1.29544   1.29744   1.30145   1.30739
  Beta virt. eigenvalues --    1.30821   1.31348   1.33568   1.33862   1.34313
  Beta virt. eigenvalues --    1.34656   1.37446   1.37775   1.38830   1.39797
  Beta virt. eigenvalues --    1.41322   1.42263   1.42433   1.46260   1.49582
  Beta virt. eigenvalues --    1.50573   1.51651   1.52375   1.53319   1.54160
  Beta virt. eigenvalues --    1.55774   1.56634   1.58092   1.59044   1.60298
  Beta virt. eigenvalues --    1.61672   1.63251   1.65532   1.66566   1.66845
  Beta virt. eigenvalues --    1.71378   1.73075   1.74730   1.76869   1.78940
  Beta virt. eigenvalues --    1.80130   1.81385   1.82651   1.83668   1.84358
  Beta virt. eigenvalues --    1.86327   1.86979   1.87953   1.89362   1.91556
  Beta virt. eigenvalues --    1.93265   1.95890   1.99951   2.03316   2.05464
  Beta virt. eigenvalues --    2.08896   2.11465   2.14094   2.14778   2.15415
  Beta virt. eigenvalues --    2.16452   2.17684   2.18972   2.19801   2.20236
  Beta virt. eigenvalues --    2.20384   2.23713   2.24780   2.26310   2.26796
  Beta virt. eigenvalues --    2.28132   2.28636   2.30708   2.32542   2.33254
  Beta virt. eigenvalues --    2.34261   2.35072   2.37040   2.38445   2.39786
  Beta virt. eigenvalues --    2.41388   2.41841   2.44896   2.46599   2.47381
  Beta virt. eigenvalues --    2.50239   2.51223   2.52768   2.53274   2.54974
  Beta virt. eigenvalues --    2.55553   2.56433   2.58694   2.60341   2.60772
  Beta virt. eigenvalues --    2.62666   2.65611   2.66953   2.67924   2.68390
  Beta virt. eigenvalues --    2.69923   2.71102   2.72902   2.74220   2.74329
  Beta virt. eigenvalues --    2.78514   2.80843   2.81870   2.83541   2.83635
  Beta virt. eigenvalues --    2.84860   2.85721   2.86640   2.88298   2.90106
  Beta virt. eigenvalues --    2.93230   2.94049   2.94351   2.97102   3.00377
  Beta virt. eigenvalues --    3.01895   3.04512   3.08808   3.09426   3.11922
  Beta virt. eigenvalues --    3.12669   3.13331   3.16173   3.17081   3.22980
  Beta virt. eigenvalues --    3.26666   3.30901   3.32259   3.37248   3.42498
  Beta virt. eigenvalues --    3.46608   3.46982   3.52588   3.52915   3.56914
  Beta virt. eigenvalues --    3.58664   3.64116   3.86009   3.93115   4.23531
  Beta virt. eigenvalues --    4.39560   4.56542   4.63572   4.67394   4.75072
  Beta virt. eigenvalues --    4.76625   4.78236   4.80595   4.81849   4.83170
  Beta virt. eigenvalues --    4.91315   4.92414   4.98808   5.05804   5.12150
  Beta virt. eigenvalues --    5.23219   5.37726   5.81657
          Condensed to atoms (all electrons):
               1          2          3          4          5          6
     1  C    5.112301   0.309521   0.471801  -0.066851  -0.090437   0.003229
     2  C    0.309521   5.145972  -0.029942  -0.013599   0.004475  -0.000038
     3  C    0.471801  -0.029942   4.412821   0.424597   0.411668  -0.047611
     4  O   -0.066851  -0.013599   0.424597   8.438295  -0.069244  -0.000334
     5  C   -0.090437   0.004475   0.411668  -0.069244   4.937461   0.229284
     6  O    0.003229  -0.000038  -0.047611  -0.000334   0.229284   8.439022
     7  C   -0.007144  -0.000381  -0.044628   0.004312   0.486536  -0.061315
     8  O   -0.000067   0.000001   0.001930  -0.000010  -0.057812  -0.002607
     9  C   -0.035459   0.002318  -0.012102   0.000000  -0.043848   0.001934
    10  O    0.003439  -0.000038  -0.000110  -0.000000   0.003593  -0.000008
    11  C    0.540013  -0.046708  -0.034524   0.004147  -0.010450  -0.000133
    12  C   -0.042644  -0.015049   0.002107  -0.000047  -0.000345   0.000001
    13  H   -0.039591   0.385968  -0.001117   0.000349  -0.000112   0.000000
    14  H   -0.041627   0.389851  -0.003744   0.017442   0.000749  -0.000006
    15  H   -0.044695   0.388544   0.000772   0.000309   0.000008   0.000000
    16  C   -0.000386  -0.000002  -0.005568  -0.011135  -0.046046   0.216198
    17  H   -0.000303   0.000017  -0.001197   0.013092  -0.006237  -0.034293
    18  H    0.000115  -0.000001   0.000509   0.000296  -0.001131  -0.040412
    19  H    0.000007  -0.000000  -0.000073   0.000239   0.004630  -0.036954
    20  C    0.000039  -0.000000  -0.000152   0.000001  -0.005936   0.000633
    21  H   -0.000021   0.000000  -0.000143   0.000000   0.002671   0.000605
    22  H   -0.000001   0.000000   0.000004  -0.000000  -0.000052  -0.000016
    23  H   -0.000008   0.000000   0.000036  -0.000000   0.000002   0.000016
    24  H   -0.000300  -0.002044   0.000189  -0.000000  -0.000018  -0.000000
    25  H    0.001976   0.000107  -0.000007   0.000000  -0.000036   0.000000
    26  C   -0.001393  -0.000662   0.000096   0.000001  -0.000036  -0.000000
    27  H   -0.000129  -0.000549  -0.000017   0.000000  -0.000000   0.000000
    28  C   -0.000007  -0.000001  -0.000001  -0.000000   0.000002  -0.000000
    29  C    0.000179   0.000028   0.000009   0.000000  -0.000005  -0.000000
    30  H    0.000000  -0.000000   0.000000   0.000000  -0.000000   0.000000
    31  H   -0.000011  -0.000001   0.000000  -0.000000  -0.000004   0.000000
    32  C   -0.000000   0.000000  -0.000000   0.000000   0.000000  -0.000000
    33  H    0.000001  -0.000002   0.000000   0.000000  -0.000000   0.000000
    34  H    0.000000  -0.000000   0.000000   0.000000  -0.000000  -0.000000
    35  H    0.000001   0.000000  -0.000000  -0.000000  -0.000000   0.000000
    36  H    0.000000   0.000000  -0.000000   0.000000   0.000000   0.000000
    37  H    0.000058  -0.000009  -0.000856   0.027484   0.000094  -0.000013
    38  O   -0.000001  -0.000012   0.000019  -0.006858   0.000002   0.000000
    39  H   -0.000001   0.000001  -0.000012   0.000228   0.000004  -0.000002
               7          8          9         10         11         12
     1  C   -0.007144  -0.000067  -0.035459   0.003439   0.540013  -0.042644
     2  C   -0.000381   0.000001   0.002318  -0.000038  -0.046708  -0.015049
     3  C   -0.044628   0.001930  -0.012102  -0.000110  -0.034524   0.002107
     4  O    0.004312  -0.000010   0.000000  -0.000000   0.004147  -0.000047
     5  C    0.486536  -0.057812  -0.043848   0.003593  -0.010450  -0.000345
     6  O   -0.061315  -0.002607   0.001934  -0.000008  -0.000133   0.000001
     7  C    4.947703   0.224244   0.403596  -0.070870  -0.095233   0.004334
     8  O    0.224244   8.433983  -0.051021  -0.000670   0.003714  -0.000052
     9  C    0.403596  -0.051021   4.477923   0.432647   0.437898  -0.035003
    10  O   -0.070870  -0.000670   0.432647   8.373132  -0.072391  -0.008671
    11  C   -0.095233   0.003714   0.437898  -0.072391   5.190973   0.299985
    12  C    0.004334  -0.000052  -0.035003  -0.008671   0.299985   5.131915
    13  H    0.000022  -0.000000  -0.000025   0.000000  -0.001616   0.000195
    14  H   -0.000032   0.000000  -0.000022   0.000000   0.002444   0.000151
    15  H   -0.000012  -0.000000   0.000098  -0.000000  -0.001117  -0.002133
    16  C   -0.002714   0.000292  -0.000020   0.000001   0.000023  -0.000000
    17  H   -0.000232   0.000005   0.000016  -0.000000  -0.000005   0.000000
    18  H    0.002901   0.000158  -0.000077  -0.000000  -0.000014   0.000000
    19  H   -0.000007  -0.000012   0.000003  -0.000000  -0.000001   0.000000
    20  C   -0.047755   0.216460  -0.005573  -0.006108  -0.000411   0.000002
    21  H   -0.002432  -0.039328   0.000486   0.000245   0.000127  -0.000000
    22  H    0.005329  -0.036214  -0.000071   0.000121   0.000007  -0.000000
    23  H   -0.006034  -0.035864   0.000478   0.009234  -0.000335   0.000006
    24  H    0.000050   0.000000   0.001959   0.000287  -0.053719   0.407083
    25  H    0.000554  -0.000003  -0.003639   0.010216  -0.042244   0.403014
    26  C    0.000004   0.000001  -0.004261  -0.000109  -0.066401   0.335704
    27  H    0.000004  -0.000000   0.000129  -0.000019   0.000223  -0.039755
    28  C   -0.000072   0.000000   0.000031  -0.011740   0.000935  -0.007042
    29  C   -0.000001   0.000000   0.000920   0.000556  -0.003688  -0.041183
    30  H    0.000000   0.000000   0.000035   0.000178  -0.000100   0.000435
    31  H    0.000177  -0.000005  -0.001126   0.019545  -0.001067  -0.002006
    32  C   -0.000001   0.000000  -0.000018   0.000001  -0.000177   0.003656
    33  H    0.000000  -0.000000  -0.000000   0.000000  -0.000007   0.000099
    34  H    0.000000   0.000000   0.000000  -0.000000  -0.000009  -0.000105
    35  H    0.000000  -0.000000   0.000001   0.000000   0.000040  -0.000083
    36  H    0.000001  -0.000000  -0.000035   0.000059   0.000059   0.000239
    37  H   -0.000003   0.000000   0.000000  -0.000000  -0.000003   0.000000
    38  O    0.000000  -0.000000  -0.000000  -0.000000   0.000000  -0.000000
    39  H    0.000000  -0.000000   0.000000  -0.000000  -0.000000   0.000000
              13         14         15         16         17         18
     1  C   -0.039591  -0.041627  -0.044695  -0.000386  -0.000303   0.000115
     2  C    0.385968   0.389851   0.388544  -0.000002   0.000017  -0.000001
     3  C   -0.001117  -0.003744   0.000772  -0.005568  -0.001197   0.000509
     4  O    0.000349   0.017442   0.000309  -0.011135   0.013092   0.000296
     5  C   -0.000112   0.000749   0.000008  -0.046046  -0.006237  -0.001131
     6  O    0.000000  -0.000006   0.000000   0.216198  -0.034293  -0.040412
     7  C    0.000022  -0.000032  -0.000012  -0.002714  -0.000232   0.002901
     8  O   -0.000000   0.000000  -0.000000   0.000292   0.000005   0.000158
     9  C   -0.000025  -0.000022   0.000098  -0.000020   0.000016  -0.000077
    10  O    0.000000   0.000000  -0.000000   0.000001  -0.000000  -0.000000
    11  C   -0.001616   0.002444  -0.001117   0.000023  -0.000005  -0.000014
    12  C    0.000195   0.000151  -0.002133  -0.000000   0.000000   0.000000
    13  H    0.572762  -0.024411  -0.036736  -0.000000   0.000001   0.000000
    14  H   -0.024411   0.464761  -0.022205   0.000006  -0.000011  -0.000000
    15  H   -0.036736  -0.022205   0.576173   0.000000  -0.000000  -0.000000
    16  C   -0.000000   0.000006   0.000000   4.852028   0.387068   0.381554
    17  H    0.000001  -0.000011  -0.000000   0.387068   0.514504  -0.038749
    18  H    0.000000  -0.000000  -0.000000   0.381554  -0.038749   0.595255
    19  H    0.000000  -0.000000   0.000000   0.391159  -0.029087  -0.034280
    20  C    0.000000  -0.000000  -0.000000  -0.000134   0.000000   0.000024
    21  H   -0.000000  -0.000000   0.000000   0.000018   0.000001  -0.000003
    22  H   -0.000000   0.000000   0.000000   0.000003  -0.000000  -0.000001
    23  H   -0.000000   0.000000   0.000000   0.000000   0.000000   0.000000
    24  H   -0.000743   0.000036   0.002285   0.000000   0.000000  -0.000000
    25  H   -0.000034   0.000004   0.000062  -0.000000  -0.000000  -0.000000
    26  C   -0.000030  -0.000003  -0.000237  -0.000000  -0.000000   0.000000
    27  H    0.000931   0.000018   0.000060  -0.000000   0.000000  -0.000000
    28  C    0.000000   0.000000   0.000000   0.000000  -0.000000   0.000000
    29  C    0.000057  -0.000000   0.000002  -0.000000  -0.000000   0.000000
    30  H    0.000000  -0.000000  -0.000000   0.000000   0.000000  -0.000000
    31  H    0.000000   0.000000  -0.000000   0.000000   0.000000  -0.000000
    32  C    0.000001  -0.000000  -0.000000  -0.000000  -0.000000   0.000000
    33  H    0.000002   0.000000  -0.000000   0.000000  -0.000000  -0.000000
    34  H    0.000000   0.000000  -0.000000  -0.000000  -0.000000   0.000000
    35  H   -0.000001   0.000000   0.000000   0.000000   0.000000  -0.000000
    36  H   -0.000000  -0.000000   0.000000   0.000000   0.000000  -0.000000
    37  H   -0.000000   0.000234   0.000000  -0.000109   0.000656  -0.000001
    38  O    0.000000   0.000055  -0.000000  -0.000103   0.000582   0.000000
    39  H    0.000000  -0.000006  -0.000000   0.000000   0.000240  -0.000001
              19         20         21         22         23         24
     1  C    0.000007   0.000039  -0.000021  -0.000001  -0.000008  -0.000300
     2  C   -0.000000  -0.000000   0.000000   0.000000   0.000000  -0.002044
     3  C   -0.000073  -0.000152  -0.000143   0.000004   0.000036   0.000189
     4  O    0.000239   0.000001   0.000000  -0.000000  -0.000000  -0.000000
     5  C    0.004630  -0.005936   0.002671  -0.000052   0.000002  -0.000018
     6  O   -0.036954   0.000633   0.000605  -0.000016   0.000016  -0.000000
     7  C   -0.000007  -0.047755  -0.002432   0.005329  -0.006034   0.000050
     8  O   -0.000012   0.216460  -0.039328  -0.036214  -0.035864   0.000000
     9  C    0.000003  -0.005573   0.000486  -0.000071   0.000478   0.001959
    10  O   -0.000000  -0.006108   0.000245   0.000121   0.009234   0.000287
    11  C   -0.000001  -0.000411   0.000127   0.000007  -0.000335  -0.053719
    12  C    0.000000   0.000002  -0.000000  -0.000000   0.000006   0.407083
    13  H    0.000000   0.000000  -0.000000  -0.000000  -0.000000  -0.000743
    14  H   -0.000000  -0.000000  -0.000000   0.000000   0.000000   0.000036
    15  H    0.000000  -0.000000   0.000000   0.000000   0.000000   0.002285
    16  C    0.391159  -0.000134   0.000018   0.000003   0.000000   0.000000
    17  H   -0.029087   0.000000   0.000001  -0.000000   0.000000   0.000000
    18  H   -0.034280   0.000024  -0.000003  -0.000001   0.000000  -0.000000
    19  H    0.571419   0.000003  -0.000003  -0.000000  -0.000000  -0.000000
    20  C    0.000003   4.841528   0.383638   0.391252   0.390907   0.000000
    21  H   -0.000003   0.383638   0.587710  -0.033074  -0.039947   0.000000
    22  H   -0.000000   0.391252  -0.033074   0.566342  -0.029301   0.000000
    23  H   -0.000000   0.390907  -0.039947  -0.029301   0.526849  -0.000000
    24  H   -0.000000   0.000000   0.000000   0.000000  -0.000000   0.563597
    25  H   -0.000000  -0.000002  -0.000000   0.000000   0.000010  -0.024128
    26  C    0.000000   0.000000  -0.000000  -0.000000  -0.000000  -0.046534
    27  H   -0.000000   0.000000  -0.000000  -0.000000   0.000000  -0.002746
    28  C   -0.000000  -0.000000   0.000000   0.000000   0.000001   0.000079
    29  C    0.000000  -0.000000   0.000000   0.000000  -0.000000   0.001448
    30  H    0.000000   0.000000  -0.000000  -0.000000  -0.000000   0.000050
    31  H    0.000000   0.000001  -0.000000  -0.000000   0.000002   0.000066
    32  C    0.000000  -0.000000   0.000000  -0.000000  -0.000000  -0.000105
    33  H    0.000000  -0.000000  -0.000000  -0.000000  -0.000000  -0.000011
    34  H    0.000000  -0.000000   0.000000   0.000000  -0.000000   0.000011
    35  H   -0.000000  -0.000000  -0.000000  -0.000000   0.000000  -0.000002
    36  H   -0.000000  -0.000000  -0.000000   0.000000   0.000000  -0.000009
    37  H    0.000005   0.000000  -0.000000   0.000000   0.000000  -0.000000
    38  O   -0.000001  -0.000000   0.000000  -0.000000  -0.000000  -0.000000
    39  H    0.000003   0.000000   0.000000  -0.000000   0.000000   0.000000
              25         26         27         28         29         30
     1  C    0.001976  -0.001393  -0.000129  -0.000007   0.000179   0.000000
     2  C    0.000107  -0.000662  -0.000549  -0.000001   0.000028  -0.000000
     3  C   -0.000007   0.000096  -0.000017  -0.000001   0.000009   0.000000
     4  O    0.000000   0.000001   0.000000  -0.000000   0.000000   0.000000
     5  C   -0.000036  -0.000036  -0.000000   0.000002  -0.000005  -0.000000
     6  O    0.000000  -0.000000   0.000000  -0.000000  -0.000000   0.000000
     7  C    0.000554   0.000004   0.000004  -0.000072  -0.000001   0.000000
     8  O   -0.000003   0.000001  -0.000000   0.000000   0.000000   0.000000
     9  C   -0.003639  -0.004261   0.000129   0.000031   0.000920   0.000035
    10  O    0.010216  -0.000109  -0.000019  -0.011740   0.000556   0.000178
    11  C   -0.042244  -0.066401   0.000223   0.000935  -0.003688  -0.000100
    12  C    0.403014   0.335704  -0.039755  -0.007042  -0.041183   0.000435
    13  H   -0.000034  -0.000030   0.000931   0.000000   0.000057   0.000000
    14  H    0.000004  -0.000003   0.000018   0.000000  -0.000000  -0.000000
    15  H    0.000062  -0.000237   0.000060   0.000000   0.000002  -0.000000
    16  C   -0.000000  -0.000000  -0.000000   0.000000  -0.000000   0.000000
    17  H   -0.000000  -0.000000   0.000000  -0.000000  -0.000000   0.000000
    18  H   -0.000000   0.000000  -0.000000   0.000000   0.000000  -0.000000
    19  H   -0.000000   0.000000  -0.000000  -0.000000   0.000000   0.000000
    20  C   -0.000002   0.000000   0.000000  -0.000000  -0.000000   0.000000
    21  H   -0.000000  -0.000000  -0.000000   0.000000   0.000000  -0.000000
    22  H    0.000000  -0.000000  -0.000000   0.000000   0.000000  -0.000000
    23  H    0.000010  -0.000000   0.000000   0.000001  -0.000000  -0.000000
    24  H   -0.024128  -0.046534  -0.002746   0.000079   0.001448   0.000050
    25  H    0.483931  -0.039219   0.002735  -0.000427  -0.000547  -0.000144
    26  C   -0.039219   5.009035   0.391802  -0.042327   0.709177  -0.003111
    27  H    0.002735   0.391802   0.532069   0.003752  -0.043506  -0.000138
    28  C   -0.000427  -0.042327   0.003752   5.180572   0.340316   0.375447
    29  C   -0.000547   0.709177  -0.043506   0.340316   4.854384  -0.043459
    30  H   -0.000144  -0.003111  -0.000138   0.375447  -0.043459   0.595361
    31  H   -0.001002  -0.001542  -0.000009   0.380630  -0.030036  -0.018418
    32  C    0.000080  -0.045714  -0.006806  -0.068938   0.353823   0.000358
    33  H    0.000007  -0.000381   0.003520   0.003899  -0.041083  -0.000133
    34  H    0.000001  -0.001348   0.000146   0.000423  -0.045547   0.002153
    35  H   -0.000002  -0.000778   0.000208  -0.001668  -0.041123  -0.000300
    36  H    0.000046   0.001338  -0.000114   0.391362  -0.045575  -0.038189
    37  H   -0.000000  -0.000000  -0.000000   0.000000  -0.000000  -0.000000
    38  O    0.000000   0.000000  -0.000000  -0.000000   0.000000   0.000000
    39  H    0.000000  -0.000000   0.000000   0.000000  -0.000000  -0.000000
              31         32         33         34         35         36
     1  C   -0.000011  -0.000000   0.000001   0.000000   0.000001   0.000000
     2  C   -0.000001   0.000000  -0.000002  -0.000000   0.000000   0.000000
     3  C    0.000000  -0.000000   0.000000   0.000000  -0.000000  -0.000000
     4  O   -0.000000   0.000000   0.000000   0.000000  -0.000000   0.000000
     5  C   -0.000004   0.000000  -0.000000  -0.000000  -0.000000   0.000000
     6  O    0.000000  -0.000000   0.000000  -0.000000   0.000000   0.000000
     7  C    0.000177  -0.000001   0.000000   0.000000   0.000000   0.000001
     8  O   -0.000005   0.000000  -0.000000   0.000000  -0.000000  -0.000000
     9  C   -0.001126  -0.000018  -0.000000   0.000000   0.000001  -0.000035
    10  O    0.019545   0.000001   0.000000  -0.000000   0.000000   0.000059
    11  C   -0.001067  -0.000177  -0.000007  -0.000009   0.000040   0.000059
    12  C   -0.002006   0.003656   0.000099  -0.000105  -0.000083   0.000239
    13  H    0.000000   0.000001   0.000002   0.000000  -0.000001  -0.000000
    14  H    0.000000  -0.000000   0.000000   0.000000   0.000000  -0.000000
    15  H   -0.000000  -0.000000  -0.000000  -0.000000   0.000000   0.000000
    16  C    0.000000  -0.000000   0.000000  -0.000000   0.000000   0.000000
    17  H    0.000000  -0.000000  -0.000000  -0.000000   0.000000   0.000000
    18  H   -0.000000   0.000000  -0.000000   0.000000  -0.000000  -0.000000
    19  H    0.000000   0.000000   0.000000   0.000000  -0.000000  -0.000000
    20  C    0.000001  -0.000000  -0.000000  -0.000000  -0.000000  -0.000000
    21  H   -0.000000   0.000000  -0.000000   0.000000  -0.000000  -0.000000
    22  H   -0.000000  -0.000000  -0.000000   0.000000  -0.000000   0.000000
    23  H    0.000002  -0.000000  -0.000000  -0.000000   0.000000   0.000000
    24  H    0.000066  -0.000105  -0.000011   0.000011  -0.000002  -0.000009
    25  H   -0.001002   0.000080   0.000007   0.000001  -0.000002   0.000046
    26  C   -0.001542  -0.045714  -0.000381  -0.001348  -0.000778   0.001338
    27  H   -0.000009  -0.006806   0.003520   0.000146   0.000208  -0.000114
    28  C    0.380630  -0.068938   0.003899   0.000423  -0.001668   0.391362
    29  C   -0.030036   0.353823  -0.041083  -0.045547  -0.041123  -0.045575
    30  H   -0.018418   0.000358  -0.000133   0.002153  -0.000300  -0.038189
    31  H    0.409767   0.002959  -0.000088  -0.000016  -0.000061  -0.021801
    32  C    0.002959   5.103955   0.390700   0.385167   0.384107  -0.003878
    33  H   -0.000088   0.390700   0.541457  -0.027396  -0.025502   0.000103
    34  H   -0.000016   0.385167  -0.027396   0.588564  -0.039809  -0.000781
    35  H   -0.000061   0.384107  -0.025502  -0.039809   0.570725   0.003185
    36  H   -0.021801  -0.003878   0.000103  -0.000781   0.003185   0.574586
    37  H    0.000000  -0.000000  -0.000000  -0.000000   0.000000   0.000000
    38  O   -0.000000   0.000000   0.000000   0.000000  -0.000000  -0.000000
    39  H   -0.000000  -0.000000  -0.000000  -0.000000   0.000000  -0.000000
              37         38         39
     1  C    0.000058  -0.000001  -0.000001
     2  C   -0.000009  -0.000012   0.000001
     3  C   -0.000856   0.000019  -0.000012
     4  O    0.027484  -0.006858   0.000228
     5  C    0.000094   0.000002   0.000004
     6  O   -0.000013   0.000000  -0.000002
     7  C   -0.000003   0.000000   0.000000
     8  O    0.000000  -0.000000  -0.000000
     9  C    0.000000  -0.000000   0.000000
    10  O   -0.000000  -0.000000  -0.000000
    11  C   -0.000003   0.000000  -0.000000
    12  C    0.000000  -0.000000   0.000000
    13  H   -0.000000   0.000000   0.000000
    14  H    0.000234   0.000055  -0.000006
    15  H    0.000000  -0.000000  -0.000000
    16  C   -0.000109  -0.000103   0.000000
    17  H    0.000656   0.000582   0.000240
    18  H   -0.000001   0.000000  -0.000001
    19  H    0.000005  -0.000001   0.000003
    20  C    0.000000  -0.000000   0.000000
    21  H   -0.000000   0.000000   0.000000
    22  H    0.000000  -0.000000  -0.000000
    23  H    0.000000  -0.000000   0.000000
    24  H   -0.000000  -0.000000   0.000000
    25  H   -0.000000   0.000000   0.000000
    26  C   -0.000000   0.000000  -0.000000
    27  H   -0.000000  -0.000000   0.000000
    28  C    0.000000  -0.000000   0.000000
    29  C   -0.000000   0.000000  -0.000000
    30  H   -0.000000   0.000000  -0.000000
    31  H    0.000000  -0.000000  -0.000000
    32  C   -0.000000   0.000000  -0.000000
    33  H   -0.000000   0.000000  -0.000000
    34  H   -0.000000   0.000000  -0.000000
    35  H    0.000000  -0.000000   0.000000
    36  H    0.000000  -0.000000  -0.000000
    37  H    0.230123   0.254908  -0.017376
    38  O    0.254908   8.427455   0.264133
    39  H   -0.017376   0.264133   0.344066
          Atomic-Atomic Spin Densities.
               1          2          3          4          5          6
     1  C   -0.112860   0.006160   0.079444  -0.003932  -0.000395  -0.000039
     2  C    0.006160   0.002503  -0.004470   0.000288   0.000011  -0.000000
     3  C    0.079444  -0.004470   0.197499  -0.127490   0.069380  -0.003740
     4  O   -0.003932   0.000288  -0.127490   0.401482  -0.002547   0.000423
     5  C   -0.000395   0.000011   0.069380  -0.002547  -0.135864   0.007210
     6  O   -0.000039  -0.000000  -0.003740   0.000423   0.007210  -0.001136
     7  C   -0.003403   0.000025  -0.008807   0.000480  -0.055240   0.002518
     8  O    0.000006  -0.000000  -0.000005  -0.000000   0.003990  -0.000246
     9  C   -0.005715  -0.000038  -0.003011   0.000033  -0.004346  -0.000012
    10  O    0.000530   0.000001   0.000044  -0.000000   0.000427  -0.000000
    11  C   -0.073844   0.001949  -0.008628   0.000611  -0.003047   0.000017
    12  C    0.004015   0.000199  -0.000082   0.000000  -0.000021  -0.000000
    13  H    0.000769  -0.000323  -0.000466   0.000137  -0.000032   0.000000
    14  H    0.001144   0.000485  -0.000338  -0.001140  -0.000028   0.000000
    15  H    0.000338  -0.000559  -0.000169   0.000042  -0.000012   0.000000
    16  C   -0.000031  -0.000001  -0.000779  -0.000311   0.005325  -0.001133
    17  H   -0.000075  -0.000000  -0.001879   0.000586  -0.000719   0.000023
    18  H    0.000013   0.000000   0.000457  -0.000060  -0.001126   0.000364
    19  H    0.000001  -0.000000   0.000004  -0.000033   0.000054  -0.000036
    20  C    0.000020  -0.000000  -0.000008  -0.000000   0.001983  -0.000091
    21  H   -0.000006   0.000000  -0.000005   0.000000  -0.000694   0.000084
    22  H   -0.000000   0.000000  -0.000001   0.000000  -0.000019   0.000002
    23  H    0.000011  -0.000000   0.000007  -0.000000   0.000163  -0.000002
    24  H    0.000700  -0.000194   0.000020  -0.000000   0.000005  -0.000000
    25  H    0.000163   0.000004  -0.000006  -0.000000   0.000019   0.000000
    26  C    0.000409  -0.000025   0.000030  -0.000001   0.000017  -0.000000
    27  H   -0.000094   0.000006  -0.000013   0.000000  -0.000001   0.000000
    28  C   -0.000003  -0.000000  -0.000000   0.000000  -0.000000   0.000000
    29  C   -0.000019   0.000000   0.000002  -0.000000   0.000001  -0.000000
    30  H    0.000000  -0.000000   0.000000  -0.000000  -0.000000  -0.000000
    31  H    0.000006   0.000000   0.000000  -0.000000  -0.000000  -0.000000
    32  C    0.000004  -0.000000   0.000000  -0.000000   0.000000  -0.000000
    33  H    0.000000  -0.000000   0.000000  -0.000000   0.000000  -0.000000
    34  H    0.000000  -0.000000   0.000000  -0.000000   0.000000  -0.000000
    35  H   -0.000001   0.000000  -0.000000   0.000000  -0.000000   0.000000
    36  H   -0.000000   0.000000  -0.000000   0.000000  -0.000000   0.000000
    37  H   -0.000010   0.000009   0.000065  -0.002904  -0.000010   0.000000
    38  O    0.000000  -0.000001   0.000006   0.000464   0.000000  -0.000000
    39  H   -0.000000  -0.000000  -0.000000   0.000006  -0.000000  -0.000000
               7          8          9         10         11         12
     1  C   -0.003403   0.000006  -0.005715   0.000530  -0.073844   0.004015
     2  C    0.000025  -0.000000  -0.000038   0.000001   0.001949   0.000199
     3  C   -0.008807  -0.000005  -0.003011   0.000044  -0.008628  -0.000082
     4  O    0.000480  -0.000000   0.000033  -0.000000   0.000611   0.000000
     5  C   -0.055240   0.003990  -0.004346   0.000427  -0.003047  -0.000021
     6  O    0.002518  -0.000246  -0.000012  -0.000000   0.000017  -0.000000
     7  C    0.227696  -0.014536   0.069911  -0.003648  -0.009860   0.000112
     8  O   -0.014536   0.002498  -0.002600   0.000487   0.000044   0.000001
     9  C    0.069911  -0.002600  -0.059868  -0.124234   0.072208  -0.004547
    10  O   -0.003648   0.000487  -0.124234   0.556992  -0.003914  -0.000000
    11  C   -0.009860   0.000044   0.072208  -0.003914   0.271919  -0.005063
    12  C    0.000112   0.000001  -0.004547  -0.000000  -0.005063  -0.031282
    13  H    0.000010   0.000000   0.000009  -0.000000   0.000621  -0.000128
    14  H   -0.000001  -0.000000  -0.000002  -0.000000   0.000079   0.000012
    15  H    0.000006  -0.000000   0.000006  -0.000001   0.000380  -0.000091
    16  C    0.001375  -0.000036  -0.000028  -0.000000   0.000019  -0.000000
    17  H    0.000070  -0.000001   0.000004  -0.000000   0.000005  -0.000000
    18  H   -0.000466   0.000035   0.000001   0.000000  -0.000008   0.000000
    19  H   -0.000009   0.000001  -0.000000   0.000000   0.000000   0.000000
    20  C   -0.004071   0.001490  -0.000556  -0.000008  -0.000033   0.000001
    21  H    0.000514   0.000063   0.000223  -0.000035   0.000006   0.000000
    22  H    0.000531   0.000083  -0.000008  -0.000036   0.000000   0.000000
    23  H   -0.000741   0.000122  -0.001871  -0.000056  -0.000092  -0.000001
    24  H   -0.000012   0.000000  -0.000153   0.000023  -0.001937   0.000760
    25  H   -0.000093  -0.000000  -0.000433  -0.000821  -0.000676   0.002371
    26  C   -0.000012  -0.000000  -0.000021   0.000298  -0.007271   0.007971
    27  H    0.000002  -0.000000   0.000049  -0.000003   0.000778  -0.000131
    28  C    0.000006  -0.000000   0.000275   0.000518   0.000067  -0.000013
    29  C   -0.000003   0.000000  -0.000326   0.000032  -0.000863   0.000743
    30  H   -0.000000   0.000000  -0.000014   0.000006  -0.000006  -0.000032
    31  H   -0.000017   0.000001  -0.000486  -0.002539   0.000108  -0.000140
    32  C   -0.000000   0.000000  -0.000011   0.000002  -0.000041  -0.000012
    33  H   -0.000000   0.000000  -0.000000   0.000000  -0.000002  -0.000001
    34  H   -0.000000   0.000000  -0.000000   0.000000  -0.000001   0.000001
    35  H    0.000000  -0.000000   0.000002  -0.000001   0.000007  -0.000003
    36  H    0.000000  -0.000000   0.000019  -0.000031   0.000009  -0.000001
    37  H    0.000000  -0.000000  -0.000000  -0.000000   0.000000  -0.000000
    38  O   -0.000000   0.000000   0.000000   0.000000  -0.000000   0.000000
    39  H   -0.000000   0.000000   0.000000  -0.000000  -0.000000  -0.000000
              13         14         15         16         17         18
     1  C    0.000769   0.001144   0.000338  -0.000031  -0.000075   0.000013
     2  C   -0.000323   0.000485  -0.000559  -0.000001  -0.000000   0.000000
     3  C   -0.000466  -0.000338  -0.000169  -0.000779  -0.001879   0.000457
     4  O    0.000137  -0.001140   0.000042  -0.000311   0.000586  -0.000060
     5  C   -0.000032  -0.000028  -0.000012   0.005325  -0.000719  -0.001126
     6  O    0.000000   0.000000   0.000000  -0.001133   0.000023   0.000364
     7  C    0.000010  -0.000001   0.000006   0.001375   0.000070  -0.000466
     8  O    0.000000  -0.000000  -0.000000  -0.000036  -0.000001   0.000035
     9  C    0.000009  -0.000002   0.000006  -0.000028   0.000004   0.000001
    10  O   -0.000000  -0.000000  -0.000001  -0.000000  -0.000000   0.000000
    11  C    0.000621   0.000079   0.000380   0.000019   0.000005  -0.000008
    12  C   -0.000128   0.000012  -0.000091  -0.000000  -0.000000   0.000000
    13  H   -0.003140   0.000148   0.000267   0.000000   0.000001  -0.000000
    14  H    0.000148  -0.001605   0.000023  -0.000000   0.000000   0.000000
    15  H    0.000267   0.000023  -0.000888  -0.000000  -0.000000   0.000000
    16  C    0.000000  -0.000000  -0.000000  -0.010873   0.000294   0.001839
    17  H    0.000001   0.000000  -0.000000   0.000294   0.002798  -0.000427
    18  H   -0.000000   0.000000   0.000000   0.001839  -0.000427  -0.001286
    19  H   -0.000000   0.000000   0.000000   0.000930  -0.000505  -0.000026
    20  C    0.000000  -0.000000  -0.000000   0.000049   0.000001  -0.000010
    21  H   -0.000000   0.000000   0.000000  -0.000011  -0.000000   0.000001
    22  H   -0.000000   0.000000   0.000000  -0.000001  -0.000000   0.000000
    23  H    0.000000  -0.000000  -0.000000   0.000001   0.000000  -0.000000
    24  H    0.000089  -0.000007  -0.000267   0.000000   0.000000  -0.000000
    25  H    0.000015  -0.000001  -0.000035   0.000000   0.000000  -0.000000
    26  C   -0.000117   0.000002   0.000057  -0.000000  -0.000000   0.000000
    27  H    0.000078  -0.000000  -0.000020   0.000000   0.000000  -0.000000
    28  C    0.000000  -0.000000  -0.000000   0.000000   0.000000  -0.000000
    29  C    0.000010  -0.000000  -0.000002  -0.000000  -0.000000   0.000000
    30  H   -0.000000   0.000000   0.000000  -0.000000  -0.000000   0.000000
    31  H   -0.000000   0.000000   0.000000  -0.000000  -0.000000   0.000000
    32  C   -0.000002   0.000000   0.000000  -0.000000  -0.000000   0.000000
    33  H   -0.000000   0.000000   0.000000  -0.000000  -0.000000   0.000000
    34  H   -0.000000   0.000000   0.000000  -0.000000  -0.000000   0.000000
    35  H    0.000000  -0.000000  -0.000000   0.000000   0.000000  -0.000000
    36  H    0.000000  -0.000000  -0.000000   0.000000   0.000000  -0.000000
    37  H   -0.000000  -0.000019  -0.000000   0.000011  -0.000021  -0.000000
    38  O    0.000000   0.000004   0.000000  -0.000001   0.000007   0.000000
    39  H   -0.000000   0.000000   0.000000  -0.000000  -0.000000  -0.000000
              19         20         21         22         23         24
     1  C    0.000001   0.000020  -0.000006  -0.000000   0.000011   0.000700
     2  C   -0.000000  -0.000000   0.000000   0.000000  -0.000000  -0.000194
     3  C    0.000004  -0.000008  -0.000005  -0.000001   0.000007   0.000020
     4  O   -0.000033  -0.000000   0.000000   0.000000  -0.000000  -0.000000
     5  C    0.000054   0.001983  -0.000694  -0.000019   0.000163   0.000005
     6  O   -0.000036  -0.000091   0.000084   0.000002  -0.000002  -0.000000
     7  C   -0.000009  -0.004071   0.000514   0.000531  -0.000741  -0.000012
     8  O    0.000001   0.001490   0.000063   0.000083   0.000122   0.000000
     9  C   -0.000000  -0.000556   0.000223  -0.000008  -0.001871  -0.000153
    10  O    0.000000  -0.000008  -0.000035  -0.000036  -0.000056   0.000023
    11  C    0.000000  -0.000033   0.000006   0.000000  -0.000092  -0.001937
    12  C    0.000000   0.000001   0.000000   0.000000  -0.000001   0.000760
    13  H   -0.000000   0.000000  -0.000000  -0.000000   0.000000   0.000089
    14  H    0.000000  -0.000000   0.000000   0.000000  -0.000000  -0.000007
    15  H    0.000000  -0.000000   0.000000   0.000000  -0.000000  -0.000267
    16  C    0.000930   0.000049  -0.000011  -0.000001   0.000001   0.000000
    17  H   -0.000505   0.000001  -0.000000  -0.000000   0.000000   0.000000
    18  H   -0.000026  -0.000010   0.000001   0.000000  -0.000000  -0.000000
    19  H   -0.000281  -0.000001   0.000000   0.000000  -0.000000  -0.000000
    20  C   -0.000001   0.002865   0.000207  -0.000230   0.001225  -0.000000
    21  H    0.000000   0.000207  -0.000809   0.000356  -0.000331  -0.000000
    22  H    0.000000  -0.000230   0.000356   0.000747  -0.000526   0.000000
    23  H   -0.000000   0.001225  -0.000331  -0.000526   0.000967   0.000000
    24  H   -0.000000  -0.000000  -0.000000   0.000000   0.000000   0.005542
    25  H   -0.000000  -0.000000   0.000000  -0.000000   0.000002   0.000817
    26  C    0.000000  -0.000000   0.000000  -0.000000  -0.000000  -0.001586
    27  H   -0.000000   0.000000  -0.000000  -0.000000   0.000000   0.000143
    28  C   -0.000000   0.000000  -0.000000  -0.000000   0.000000   0.000024
    29  C    0.000000  -0.000000   0.000000   0.000000  -0.000000  -0.000029
    30  H    0.000000  -0.000000   0.000000   0.000000  -0.000000  -0.000004
    31  H    0.000000  -0.000000   0.000000   0.000000   0.000001  -0.000023
    32  C    0.000000  -0.000000   0.000000   0.000000  -0.000000  -0.000005
    33  H    0.000000  -0.000000   0.000000   0.000000  -0.000000  -0.000000
    34  H    0.000000   0.000000   0.000000   0.000000  -0.000000  -0.000000
    35  H   -0.000000   0.000000  -0.000000  -0.000000   0.000000   0.000000
    36  H   -0.000000   0.000000  -0.000000  -0.000000   0.000000   0.000000
    37  H    0.000000  -0.000000   0.000000   0.000000  -0.000000  -0.000000
    38  O   -0.000000   0.000000  -0.000000  -0.000000   0.000000   0.000000
    39  H    0.000000  -0.000000   0.000000   0.000000  -0.000000  -0.000000
              25         26         27         28         29         30
     1  C    0.000163   0.000409  -0.000094  -0.000003  -0.000019   0.000000
     2  C    0.000004  -0.000025   0.000006  -0.000000   0.000000  -0.000000
     3  C   -0.000006   0.000030  -0.000013  -0.000000   0.000002   0.000000
     4  O   -0.000000  -0.000001   0.000000   0.000000  -0.000000  -0.000000
     5  C    0.000019   0.000017  -0.000001  -0.000000   0.000001  -0.000000
     6  O    0.000000  -0.000000   0.000000   0.000000  -0.000000  -0.000000
     7  C   -0.000093  -0.000012   0.000002   0.000006  -0.000003  -0.000000
     8  O   -0.000000  -0.000000  -0.000000  -0.000000   0.000000   0.000000
     9  C   -0.000433  -0.000021   0.000049   0.000275  -0.000326  -0.000014
    10  O   -0.000821   0.000298  -0.000003   0.000518   0.000032   0.000006
    11  C   -0.000676  -0.007271   0.000778   0.000067  -0.000863  -0.000006
    12  C    0.002371   0.007971  -0.000131  -0.000013   0.000743  -0.000032
    13  H    0.000015  -0.000117   0.000078   0.000000   0.000010  -0.000000
    14  H   -0.000001   0.000002  -0.000000  -0.000000  -0.000000   0.000000
    15  H   -0.000035   0.000057  -0.000020  -0.000000  -0.000002   0.000000
[...]
    18  H(1)               0.00010       0.45315       0.16170       0.15116
    19  H(1)               0.00007       0.29248       0.10437       0.09756
    20  C(13)              0.00722       8.11736       2.89648       2.70766
    21  H(1)              -0.00024      -1.05367      -0.37597      -0.35147
    22  H(1)               0.00013       0.58805       0.20983       0.19615
    23  H(1)              -0.00000      -0.01595      -0.00569      -0.00532
    24  H(1)               0.00183       8.19742       2.92504       2.73436
    25  H(1)               0.00101       4.49839       1.60514       1.50050
    26  C(13)              0.00025       0.28090       0.10023       0.09370
    27  H(1)               0.00119       5.31223       1.89554       1.77197
    28  C(13)             -0.00320      -3.59246      -1.28188      -1.19832
    29  C(13)              0.01174      13.19418       4.70801       4.40110
    30  H(1)               0.00130       5.80000       2.06958       1.93467
    31  H(1)               0.00033       1.48731       0.53071       0.49611
    32  C(13)             -0.00268      -3.00856      -1.07353      -1.00355
    33  H(1)               0.00014       0.64129       0.22883       0.21391
    34  H(1)               0.00092       4.13338       1.47489       1.37875
    35  H(1)               0.00107       4.78583       1.70770       1.59638
    36  H(1)               0.00063       2.82782       1.00904       0.94326
    37  H(1)               0.00025       1.13770       0.40596       0.37950
    38  O(17)             -0.00128       0.77627       0.27699       0.25894
    39  H(1)               0.00004       0.16233       0.05792       0.05415
 --------------------------------------------------------
       Center         ----  Spin Dipole Couplings  ----
                      3XX-RR        3YY-RR        3ZZ-RR
 --------------------------------------------------------
     1   Atom        0.032587      0.040034     -0.072621
     2   Atom       -0.000705      0.004108     -0.003403
     3   Atom       -0.071436     -0.082766      0.154202
     4   Atom       -0.431957     -0.451282      0.883239
     5   Atom        0.052527      0.040587     -0.093114
     6   Atom        0.006804      0.005936     -0.012740
     7   Atom       -0.082834     -0.090874      0.173709
     8   Atom        0.006193     -0.039102      0.032909
     9   Atom        0.007068     -0.000790     -0.006278
    10   Atom       -0.597140     -0.756324      1.353464
    11   Atom       -0.091100     -0.101955      0.193054
    12   Atom       -0.004993      0.004455      0.000538
    13   Atom        0.000266      0.001463     -0.001729
    14   Atom       -0.001174      0.003717     -0.002543
    15   Atom       -0.000181      0.000945     -0.000764
    16   Atom        0.000903      0.000430     -0.001333
    17   Atom        0.000351     -0.002539      0.002189
    18   Atom       -0.000062      0.000185     -0.000123
    19   Atom        0.000082      0.000137     -0.000219
    20   Atom       -0.004894      0.006372     -0.001479
    21   Atom        0.000635      0.001077     -0.001713
    22   Atom       -0.000961      0.002856     -0.001894
    23   Atom       -0.000567      0.004758     -0.004191
    24   Atom       -0.000537      0.002393     -0.001856
    25   Atom        0.002727     -0.000119     -0.002609
    26   Atom       -0.006827      0.012383     -0.005556
    27   Atom        0.000932     -0.000434     -0.000497
    28   Atom        0.003428     -0.001607     -0.001820
    29   Atom        0.007334     -0.014149      0.006815
    30   Atom        0.001898     -0.000556     -0.001342
    31   Atom        0.009212     -0.003484     -0.005728
    32   Atom        0.000387      0.000497     -0.000884
    33   Atom       -0.000108      0.000570     -0.000462
    34   Atom        0.000373     -0.000087     -0.000286
    35   Atom        0.000203     -0.000517      0.000314
    36   Atom        0.001875     -0.000843     -0.001033
    37   Atom        0.004731     -0.000126     -0.004605
    38   Atom       -0.000003     -0.000870      0.000872
    39   Atom        0.002093     -0.000730     -0.001363
 --------------------------------------------------------
                        XY            XZ            YZ
 --------------------------------------------------------
     1   Atom        0.012422     -0.031892      0.025460
     2   Atom       -0.002405     -0.001745      0.002486
     3   Atom       -0.007941      0.069994     -0.064361
     4   Atom       -0.112915      0.395907     -0.324020
     5   Atom        0.010071     -0.038056      0.033582
     6   Atom       -0.010008     -0.020422     -0.002584
     7   Atom       -0.019672      0.086427     -0.069040
     8   Atom        0.004025      0.021432      0.000561
     9   Atom        0.017092      0.001961     -0.004845
    10   Atom       -0.142430      0.715624     -0.417803
    11   Atom       -0.019717      0.084629     -0.066291
    12   Atom       -0.002591      0.001908      0.001366
    13   Atom       -0.001380     -0.000261      0.000016
    14   Atom       -0.003028     -0.001739      0.003038
    15   Atom       -0.000276     -0.001064      0.001270
    16   Atom       -0.002606      0.001423      0.003861
    17   Atom       -0.002202     -0.004094      0.003750
    18   Atom       -0.000269     -0.001506      0.001448
    19   Atom       -0.000611     -0.000785      0.000829
    20   Atom       -0.002540      0.000683     -0.007167
    21   Atom       -0.003218      0.001857     -0.001560
    22   Atom       -0.001758     -0.000125      0.000170
    23   Atom       -0.004063      0.000986     -0.003840
    24   Atom       -0.002678     -0.002205      0.002306
    25   Atom       -0.004392     -0.004022      0.004781
    26   Atom        0.013260      0.039741     -0.024305
    27   Atom       -0.002407      0.002511      0.000109
    28   Atom       -0.002576      0.001684     -0.000631
    29   Atom       -0.022650     -0.033725      0.019303
    30   Atom       -0.000441      0.000175     -0.000393
    31   Atom       -0.004969      0.002146     -0.001081
    32   Atom       -0.000614      0.000378     -0.000654
    33   Atom       -0.000836      0.000268     -0.000869
    34   Atom       -0.000939      0.000819     -0.000550
    35   Atom       -0.000664      0.001112     -0.001046
    36   Atom       -0.000266      0.001937     -0.000384
    37   Atom        0.007726     -0.000813     -0.001119
    38   Atom       -0.000520      0.000345      0.000194
    39   Atom        0.001707      0.000058      0.000145
 --------------------------------------------------------


 ---------------------------------------------------------------------------------
              Anisotropic Spin Dipole Couplings in Principal Axis System
 ---------------------------------------------------------------------------------

       Atom             a.u.   MegaHertz   Gauss  10(-4) cm-1        Axes

              Baa    -0.0876   -11.758    -4.196    -3.922  0.2711 -0.2136  0.9386
     1 C(13)  Bbb     0.0383     5.141     1.835     1.715  0.7783 -0.5250 -0.3443
              Bcc     0.0493     6.617     2.361     2.207  0.5663  0.8238  0.0239
 
              Baa    -0.0045    -0.601    -0.214    -0.200  0.3153 -0.1814  0.9315
     2 C(13)  Bbb    -0.0016    -0.210    -0.075    -0.070  0.8658  0.4568 -0.2041
              Bcc     0.0060     0.811     0.289     0.270 -0.3885  0.8709  0.3011
 
              Baa    -0.1049   -14.075    -5.022    -4.695 -0.5132  0.7902  0.3349
     3 C(13)  Bbb    -0.0844   -11.322    -4.040    -3.777  0.8183  0.5682 -0.0868
              Bcc     0.1893    25.397     9.062     8.472  0.2589 -0.2295  0.9382
 
              Baa    -0.5577    40.357    14.400    13.462  0.8113  0.5771 -0.0931
     4 O(17)  Bbb    -0.5126    37.089    13.234    12.372 -0.5216  0.7866  0.3305
              Bcc     1.0703   -77.446   -27.635   -25.833  0.2640 -0.2196  0.9392
 
              Baa    -0.1106   -14.837    -5.294    -4.949  0.2346 -0.2257  0.9455
     5 C(13)  Bbb     0.0485     6.505     2.321     2.170 -0.0707  0.9661  0.2481
              Bcc     0.0621     8.332     2.973     2.779  0.9695  0.1250 -0.2107
 
              Baa    -0.0274     1.980     0.706     0.660  0.5478  0.2271  0.8052
     6 O(17)  Bbb     0.0045    -0.326    -0.116    -0.109  0.2317  0.8836 -0.4069
              Bcc     0.0229    -1.654    -0.590    -0.552  0.8039 -0.4095 -0.4314
 
              Baa    -0.1100   -14.757    -5.266    -4.923  0.8023 -0.4759 -0.3603
     7 C(13)  Bbb    -0.1069   -14.342    -5.118    -4.784  0.5252  0.8497  0.0473
              Bcc     0.2169    29.099    10.383     9.706  0.2836 -0.2272  0.9317
 
              Baa    -0.0395     2.857     1.019     0.953 -0.0976  0.9950  0.0212
     8 O(17)  Bbb    -0.0054     0.390     0.139     0.130  0.8681  0.0955 -0.4871
              Bcc     0.0449    -3.247    -1.159    -1.083  0.4867  0.0292  0.8731
 
              Baa    -0.0168    -2.254    -0.804    -0.752 -0.5483  0.7161  0.4319
     9 C(13)  Bbb    -0.0040    -0.532    -0.190    -0.177  0.3116 -0.3044  0.9001
              Bcc     0.0208     2.786     0.994     0.929  0.7761  0.6282 -0.0563
 
              Baa    -0.8399    60.777    21.687    20.273  0.5492  0.8355 -0.0200
    10 O(17)  Bbb    -0.8283    59.933    21.386    19.991  0.7775 -0.5195 -0.3545
              Bcc     1.6682  -120.710   -43.072   -40.264  0.3066 -0.1791  0.9348
 
              Baa    -0.1171   -15.707    -5.605    -5.239  0.4940  0.8680  0.0507
    11 C(13)  Bbb    -0.1137   -15.254    -5.443    -5.088  0.8295 -0.4530 -0.3268
              Bcc     0.2307    30.961    11.048    10.327  0.2606 -0.2035  0.9437
 
              Baa    -0.0064    -0.853    -0.304    -0.285  0.9168  0.2582 -0.3048
    12 C(13)  Bbb     0.0011     0.144     0.051     0.048  0.3422 -0.1143  0.9326
              Bcc     0.0053     0.709     0.253     0.237 -0.2060  0.9593  0.1932
 
              Baa    -0.0018    -0.946    -0.338    -0.316  0.1718  0.0684  0.9828
    13 H(1)   Bbb    -0.0006    -0.321    -0.114    -0.107  0.8170  0.5476 -0.1809
              Bcc     0.0024     1.267     0.452     0.423 -0.5505  0.8340  0.0382
 
              Baa    -0.0039    -2.099    -0.749    -0.700  0.3156 -0.2397  0.9181
    14 H(1)   Bbb    -0.0026    -1.375    -0.491    -0.459  0.8551  0.4914 -0.1656
              Bcc     0.0065     3.474     1.240     1.159 -0.4114  0.8373  0.3600
 
              Baa    -0.0019    -0.997    -0.356    -0.333  0.4654 -0.3259  0.8230
    15 H(1)   Bbb    -0.0000    -0.024    -0.008    -0.008  0.8072  0.5377 -0.2435
              Bcc     0.0019     1.021     0.364     0.340 -0.3632  0.7776  0.5133
 
              Baa    -0.0056    -0.750    -0.268    -0.250 -0.3953 -0.6109  0.6860
    16 C(13)  Bbb     0.0015     0.202     0.072     0.067  0.8048  0.1296  0.5792
              Bcc     0.0041     0.548     0.196     0.183 -0.4427  0.7810  0.4404
 
              Baa    -0.0046    -2.459    -0.878    -0.820 -0.0197  0.8704 -0.4920
    17 H(1)   Bbb    -0.0027    -1.460    -0.521    -0.487  0.8327  0.2866  0.4738
              Bcc     0.0073     3.920     1.399     1.307 -0.5534  0.4004  0.7304
 
              Baa    -0.0020    -1.069    -0.382    -0.357  0.5163 -0.4274  0.7421
    18 H(1)   Bbb    -0.0002    -0.108    -0.039    -0.036  0.6898  0.7211 -0.0647
              Bcc     0.0022     1.177     0.420     0.393 -0.5075  0.5453  0.6671
 
              Baa    -0.0010    -0.525    -0.187    -0.175  0.3773 -0.4092  0.8308
    19 H(1)   Bbb    -0.0005    -0.268    -0.096    -0.089  0.7275  0.6861  0.0075
              Bcc     0.0015     0.792     0.283     0.264 -0.5730  0.6016  0.5566
 
              Baa    -0.0062    -0.838    -0.299    -0.279  0.5879  0.4859  0.6468
    20 C(13)  Bbb    -0.0048    -0.642    -0.229    -0.214  0.7935 -0.1907 -0.5779
              Bcc     0.0110     1.479     0.528     0.493 -0.1575  0.8530 -0.4976
 
              Baa    -0.0028    -1.479    -0.528    -0.493 -0.6003 -0.1868  0.7777
    21 H(1)   Bbb    -0.0022    -1.164    -0.415    -0.388  0.4637  0.7109  0.5287
              Bcc     0.0050     2.643     0.943     0.882 -0.6516  0.6780 -0.3402
 
              Baa    -0.0019    -1.021    -0.364    -0.340  0.2006  0.0390  0.9789
    22 H(1)   Bbb    -0.0016    -0.873    -0.312    -0.291  0.9096  0.3636 -0.2009
              Bcc     0.0035     1.894     0.676     0.632 -0.3638  0.9307  0.0374
 
              Baa    -0.0057    -3.029    -1.081    -1.010  0.1317  0.3871  0.9126
    23 H(1)   Bbb    -0.0025    -1.324    -0.473    -0.442  0.8930  0.3533 -0.2787
              Bcc     0.0082     4.354     1.553     1.452 -0.4303  0.8517 -0.2991
 
              Baa    -0.0035    -1.877    -0.670    -0.626  0.5472 -0.0773  0.8334
    24 H(1)   Bbb    -0.0018    -0.971    -0.346    -0.324  0.6711  0.6356 -0.3817
              Bcc     0.0053     2.848     1.016     0.950 -0.5002  0.7681  0.3997
 
              Baa    -0.0063    -3.387    -1.209    -1.130  0.0892 -0.5660  0.8195
    25 H(1)   Bbb    -0.0028    -1.473    -0.526    -0.491  0.7261  0.6001  0.3355
              Bcc     0.0091     4.860     1.734     1.621  0.6817 -0.5652 -0.4646
 
              Baa    -0.0563    -7.551    -2.695    -2.519 -0.6409  0.3632  0.6763
    26 C(13)  Bbb     0.0188     2.529     0.902     0.844  0.5570  0.8262  0.0841
              Bcc     0.0374     5.022     1.792     1.675  0.5282 -0.4306  0.7318
 
              Baa    -0.0034    -1.804    -0.644    -0.602  0.6277  0.5336 -0.5667
    27 H(1)   Bbb    -0.0004    -0.190    -0.068    -0.063  0.0076  0.7239  0.6899
              Bcc     0.0037     1.994     0.711     0.665  0.7784 -0.4374  0.4504
 
              Baa    -0.0027    -0.363    -0.129    -0.121  0.4196  0.8932 -0.1616
    28 C(13)  Bbb    -0.0023    -0.306    -0.109    -0.102 -0.1678  0.2513  0.9533
              Bcc     0.0050     0.669     0.239     0.223  0.8921 -0.3729  0.2553
 
              Baa    -0.0290    -3.887    -1.387    -1.296  0.6770  0.6853  0.2684
    29 C(13)  Bbb    -0.0248    -3.330    -1.188    -1.111  0.3293 -0.6082  0.7223
              Bcc     0.0538     7.216     2.575     2.407  0.6582 -0.4006 -0.6374
 
              Baa    -0.0015    -0.803    -0.286    -0.268  0.0023  0.3836  0.9235
    30 H(1)   Bbb    -0.0005    -0.260    -0.093    -0.087  0.1950  0.9056 -0.3766
              Bcc     0.0020     1.063     0.379     0.355  0.9808 -0.1810  0.0727
 
              Baa    -0.0062    -3.291    -1.174    -1.098 -0.0219  0.3385  0.9407
    31 H(1)   Bbb    -0.0051    -2.717    -0.970    -0.906  0.3531  0.8829 -0.3095
              Bcc     0.0113     6.008     2.144     2.004  0.9353 -0.3254  0.1389
 
              Baa    -0.0012    -0.155    -0.055    -0.052 -0.0960  0.3352  0.9373
    32 C(13)  Bbb    -0.0002    -0.020    -0.007    -0.007  0.7845  0.6051 -0.1360
              Bcc     0.0013     0.176     0.063     0.059 -0.6127  0.7222 -0.3210
 
              Baa    -0.0010    -0.542    -0.193    -0.181  0.3080  0.5770  0.7565
    33 H(1)   Bbb    -0.0005    -0.270    -0.096    -0.090  0.8276  0.2297 -0.5122
              Bcc     0.0015     0.812     0.290     0.271 -0.4693  0.7838 -0.4067
 
              Baa    -0.0009    -0.467    -0.167    -0.156  0.7006  0.4468 -0.5563
    34 H(1)   Bbb    -0.0007    -0.396    -0.141    -0.132  0.0938  0.7153  0.6925
              Bcc     0.0016     0.863     0.308     0.288  0.7073 -0.5374  0.4593
 
              Baa    -0.0012    -0.659    -0.235    -0.220 -0.1064  0.7869  0.6078
    35 H(1)   Bbb    -0.0007    -0.392    -0.140    -0.131  0.7998  0.4309 -0.4179
              Bcc     0.0020     1.051     0.375     0.351  0.5908 -0.4416  0.6752
 
              Baa    -0.0020    -1.091    -0.389    -0.364 -0.4248  0.1888  0.8854
    36 H(1)   Bbb    -0.0008    -0.451    -0.161    -0.150  0.1818  0.9759 -0.1209
              Bcc     0.0029     1.541     0.550     0.514  0.8868 -0.1095  0.4489
 
              Baa    -0.0059    -3.169    -1.131    -1.057 -0.5385  0.7779  0.3237
    37 H(1)   Bbb    -0.0046    -2.442    -0.871    -0.814  0.2590 -0.2128  0.9422
              Bcc     0.0105     5.611     2.002     1.872  0.8018  0.5912 -0.0869
 
              Baa    -0.0012     0.084     0.030     0.028  0.4422  0.8827 -0.1589
    38 O(17)  Bbb     0.0002    -0.013    -0.004    -0.004  0.8363 -0.4698 -0.2827
              Bcc     0.0010    -0.072    -0.026    -0.024  0.3242  0.0079  0.9460
 
              Baa    -0.0016    -0.845    -0.302    -0.282 -0.3731  0.8187 -0.4364
    39 H(1)   Bbb    -0.0013    -0.701    -0.250    -0.234 -0.2080  0.3846  0.8993
              Bcc     0.0029     1.547     0.552     0.516  0.9042  0.4263  0.0268
 

 ---------------------------------------------------------------------------------

 Unable to Open any file for archive entry.
 1\1\GINC-P08R01N27\FOpt\UHF\6-31G(d)\C14H20O5(1-,2)\JL3566\26-Oct-2021
 \1\\# HF/6-31G* Opt=(Z-matrix,MaxCycles=100) Geom=PrintInputOrient\\<q
 mtool> simtype="Geometry optimization" </qmtool> Q1H-ACC-O2\\-1,2\C,0,
 -0.2269999981,-1.5310000181,-0.6560000181\C,0,0.2840000093,-2.91199994
 09,-0.9819999933\C,0,-1.6100000143,-1.4620000124,-0.1850000024\O,0,-2.
 3350000381,-2.4830000401,-0.0659999996\C,0,-2.1180000305,-0.1299999952
 ,0.1280000061\O,0,-3.4419999123,0.0240000002,0.5090000033\C,0,-1.32799
 99495,0.9879999757,0.0089999996\O,0,-1.8309999704,2.2200000286,0.38800
 00114\C,0,0.0309999995,0.9350000024,-0.4970000088\O,0,0.7220000029,2.0
 050001144,-0.6690000296\C,0,0.5389999747,-0.3939999938,-0.7929999828\C
 ,0,1.9720000029,-0.4300000072,-1.2539999485\H,0,1.0260000229,-3.260999
 918,-0.2540000081\H,0,-0.5630000234,-3.6010000706,-0.9589999914\H,0,0.
 7549999952,-2.9479999542,-1.9700000286\C,0,-3.7509999275,-0.6349999905
 ,1.7410000563\H,0,-3.5380001068,-1.7020000219,1.6699999571\H,0,-3.1830
 000877,-0.1840000004,2.5659999847\H,0,-4.8179998398,-0.4679999948,1.90
 90000391\C,0,-2.132999897,3.0239999294,-0.75\H,0,-2.9059998989,2.54600
 00038,-1.3650000095\H,0,-2.5150001049,3.9719998837,-0.3610000014\H,0,-
 1.2300000191,3.2000000477,-1.3400000334\H,0,2.1019999981,-1.1749999523
 ,-2.0529999733\H,0,2.2119998932,0.5500000119,-1.6720000505\C,0,2.88899
 9939,-0.7829999924,-0.1150000021\H,0,2.8800001144,-1.8339999914,0.1790
 000051\C,0,3.7630000114,1.5349999666,0.3269999921\C,0,3.6710000038,0.0
 529999994,0.5820000172\H,0,4.6760001183,1.7840000391,-0.2329999954\H,0
 ,2.8849999905,1.9040000439,-0.2070000023\C,0,4.5430002213,-0.460999995
 5,1.6979999542\H,0,4.4499998093,-1.5460000038,1.8140000105\H,0,5.59899
 99771,-0.2240000069,1.5119999647\H,0,4.2769999504,0.0109999999,2.65300
 01163\H,0,3.8210000992,2.0710000992,1.2819999456\H,4,rAH,5,148.27,3,-1
 80.,0\X,37,1.,4,90.,5,0.,0\O,37,0.9527,38,90.,4,180.,0\H,39,0.9527,37,
 104.52,38,dih,0\\rAH=1.86435664\dih=52.09399961\\Version=ES64L-G16RevC
 .01\State=2-A\HF=-916.0596617\S2=0.878617\S2-1=0.\S2A=0.760474\RMSD=9.
 685e-09\RMSF=8.941e-03\Dipole=1.3431306,0.8844338,-0.2247622\Quadrupol
 e=-1.7839151,-15.059317,16.8432321,-14.7572188,3.4420028,1.4038683\PG=
 C01 [X(C14H20O5)]\\@
 The archive entry for this job was punched.


 THERE IS AN OLD, OLD RECIPE IN MAINE FOR STEWING COOT. PLACE THE
 BIRD IN A KETTLE OF WATER WITH A RED BUILDING BRICK FREE OF MORTAR AND
 BLEMISHES. PARBOIL THE COOT AND BRICK TOGETHER FOR THREE HOURS.
 POUR OFF THE WATER, REFILL THE KETTLE, AND AGAIN PARBOIL FOR THREE HOURS.
 ONCE AGAIN POUR OFF THE WATER, FOR THE LAST TIME ADD FRESH WATER,
 AND LET THE COOT AND BRICK SIMMER TOGETHER OVERNIGHT. IN THE MORNING,
 THROW AWAY THE COOT AND EAT THE BRICK.
 Job cpu time:       0 days  1 hours 22 minutes 13.2 seconds.
 Elapsed time:       0 days  0 hours 20 minutes 42.5 seconds.
 File lengths (MBytes):  RWF=    176 Int=      0 D2E=      0 Chk=     16 Scr=      8
 Normal termination of Gaussian 16 at Tue Oct 26 23:24:22 2021.
