 Entering Gaussian System, Link 0=g16
 Initial command:
 /gpfs/loomis/apps/avx/software/Gaussian/16-C.01_AVX/g16/l1.exe "/home/jl3566/scratch60/g16/Gau-11936.inp" -scrdir="/home/jl3566/scratch60/g16/"
 Entering Link 1 = /gpfs/loomis/apps/avx/software/Gaussian/16-C.01_AVX/g16/l1.exe PID=     11937.
  
 Copyright (c) 1988-2019, Gaussian, Inc.  All Rights Reserved.
  
 This is part of the Gaussian(R) 16 program.  It is based on
 the Gaussian(R) 09 system (copyright 2009, Gaussian, Inc.),
 the Gaussian(R) 03 system (copyright 2003, Gaussian, Inc.),
 the Gaussian(R) 98 system (copyright 1998, Gaussian, Inc.),
 the Gaussian(R) 94 system (copyright 1995, Gaussian, Inc.),
 the Gaussian 92(TM) system (copyright 1992, Gaussian, Inc.),
 the Gaussian 90(TM) system (copyright 1990, Gaussian, Inc.),
 the Gaussian 88(TM) system (copyright 1988, Gaussian, Inc.),
 the Gaussian 86(TM) system (copyright 1986, Carnegie Mellon
 University), and the Gaussian 82(TM) system (copyright 1983,
 Carnegie Mellon University). Gaussian is a federally registered
 trademark of Gaussian, Inc.
  
 This software contains proprietary and confidential information,
 including trade secrets, belonging to Gaussian, Inc.
  
 This software is provided under written license and may be
 used, copied, transmitted, or stored only in accord with that
 written license.
  
 The following legend is applicable only to US Government
 contracts under FAR:
  
                    RESTRICTED RIGHTS LEGEND
  
 Use, reproduction and disclosure by the US Government is
 subject to restrictions as set forth in subparagraphs (a)
 and (c) of the Commercial Computer Software - Restricted
 Rights clause in FAR 52.227-19.
  
 Gaussian, Inc.
 340 Quinnipiac St., Bldg. 40, Wallingford CT 06492
  
  
 ---------------------------------------------------------------
 Warning -- This program may not be used in any manner that
 competes with the business of Gaussian, Inc. or will provide
 assistance to any competitor of Gaussian, Inc.  The licensee
 of this program is prohibited from giving any competitor of
 Gaussian, Inc. access to this program.  By using this program,
 the user acknowledges that Gaussian, Inc. is engaged in the
 business of creating and licensing software in the field of
 computational chemistry and represents and warrants to the
 licensee that it is not a competitor of Gaussian, Inc. and that
 it will not use this program in any manner prohibited above.
 ---------------------------------------------------------------
  

 Cite this work as:
 Gaussian 16, Revision C.01,
 M. J. Frisch, G. W. Trucks, H. B. Schlegel, G. E. Scuseria, 
 M. A. Robb, J. R. Cheeseman, G. Scalmani, V. Barone, 
 G. A. Petersson, H. Nakatsuji, X. Li, M. Caricato, A. V. Marenich, 
 J. Bloino, B. G. Janesko, R. Gomperts, B. Mennucci, H. P. Hratchian, 
 J. V. Ortiz, A. F. Izmaylov, J. L. Sonnenberg, D. Williams-Young, 
 F. Ding, F. Lipparini, F. Egidi, J. Goings, B. Peng, A. Petrone, 
 T. Henderson, D. Ranasinghe, V. G. Zakrzewski, J. Gao, N. Rega, 
 G. Zheng, W. Liang, M. Hada, M. Ehara, K. Toyota, R. Fukuda, 
 J. Hasegawa, M. Ishida, T. Nakajima, Y. Honda, O. Kitao, H. Nakai, 
 T. Vreven, K. Throssell, J. A. Montgomery, Jr., J. E. Peralta, 
 F. Ogliaro, M. J. Bearpark, J. J. Heyd, E. N. Brothers, K. N. Kudin, 
 V. N. Staroverov, T. A. Keith, R. Kobayashi, J. Normand, 
 K. Raghavachari, A. P. Rendell, J. C. Burant, S. S. Iyengar, 
 J. Tomasi, M. Cossi, J. M. Millam, M. Klene, C. Adamo, R. Cammi, 
 J. W. Ochterski, R. L. Martin, K. Morokuma, O. Farkas, 
 J. B. Foresman, and D. J. Fox, Gaussian, Inc., Wallingford CT, 2019.
 
 ******************************************
 Gaussian 16:  ES64L-G16RevC.01  3-Jul-2019
                26-Oct-2021 
 ******************************************
 %chk=Q1H-ACC-O5-120a.chk
 %nproc=4
 Will use up to    4 processors via shared memory.
 %mem=4GB
 --------------------------------------------------------------
 # HF/6-31G* Opt=(Z-matrix,MaxCycles=100) Geom=PrintInputOrient
 --------------------------------------------------------------
 1/6=100,10=7,18=40,38=1/1,3;
 2/9=2000,12=2,17=6,18=5,29=3,40=1/2;
 3/5=1,6=6,7=1,11=9,25=1,30=1,71=1/1,2,3;
 4//1;
 5/5=2,38=5/2;
 6/7=2,8=2,9=2,10=2,28=1/1;
 7/29=1/1,2,3,16;
 1/6=100,10=7,18=40/3(2);
 2/9=2000,29=3/2;
 99//99;
 2/9=2000,29=3/2;
 3/5=1,6=6,7=1,11=9,25=1,30=1,71=1/1,2,3;
 4/5=5,16=3,69=1/1;
 5/5=2,38=5/2;
 7//1,2,3,16;
 1/6=100,18=40/3(-5);
 2/9=2000,29=3/2;
 6/7=2,8=2,9=2,10=2,19=2,28=1/1;
 99/9=1/99;
 ------------------------------------------------------------------
 <qmtool> simtype="Geometry optimization" </qmtool> Q1H-ACC-O5-120a
 ------------------------------------------------------------------
 Symbolic Z-matrix:
 Charge = -1 Multiplicity = 2
 C1                   -0.227    -1.531    -0.656 
 C2                    0.284    -2.912    -0.982 
 C3                   -1.61     -1.462    -0.185 
 O4                   -2.335    -2.483    -0.066 
 C5                   -2.118    -0.13      0.128 
 O6                   -3.442     0.024     0.509 
 C7                   -1.328     0.988     0.009 
 O8                   -1.831     2.22      0.388 
 C9                    0.031     0.935    -0.497 
 O10                   0.722     2.005    -0.669 
 C11                   0.539    -0.394    -0.793 
 C12                   1.972    -0.43     -1.254 
 H13                   1.026    -3.261    -0.254 
 H14                  -0.563    -3.601    -0.959 
 H15                   0.755    -2.948    -1.97 
 C16                  -3.751    -0.635     1.741 
 H17                  -3.538    -1.702     1.67 
 H18                  -3.183    -0.184     2.566 
 H19                  -4.818    -0.468     1.909 
 C20                  -2.133     3.024    -0.75 
 H21                  -2.906     2.546    -1.365 
 H22                  -2.515     3.972    -0.361 
 H23                  -1.23      3.2      -1.34 
 H24                   2.102    -1.175    -2.053 
 H25                   2.212     0.55     -1.672 
 C26                   2.889    -0.783    -0.115 
 H27                   2.88     -1.834     0.179 
 C28                   3.763     1.535     0.327 
 C29                   3.671     0.053     0.582 
 H30                   4.676     1.784    -0.233 
 H31                   2.885     1.904    -0.207 
 C32                   4.543    -0.461     1.698 
 H33                   4.45     -1.546     1.814 
 H34                   5.599    -0.224     1.512 
 H35                   4.277     0.011     2.653 
 H36                   3.821     2.071     1.282 
 H1w                  O10  rAH      C9    120.     C11   180.     0
 x                    H1w   1.       O10   90.      C9    0.       0
 Ow                   H1w   0.9527   x     90.      O10   180.     0
 H2w                  Ow    0.9527   H1w   104.52   x    dih      0
       Variables:
  rAH                   2.                       
  dih                   0.                       
 

 GradGradGradGradGradGradGradGradGradGradGradGradGradGradGradGradGradGrad
 Berny optimization.
 Initialization pass.
                       ----------------------------
                       !    Initial Parameters    !
                       ! (Angstroms and Degrees)  !
 ----------------------                            ----------------------
 !      Name          Value   Derivative information (Atomic Units)     !
 ------------------------------------------------------------------------
 !       rAH         2.0      estimate D2E/DX2                          !
 !       dih         0.0      estimate D2E/DX2                          !
 ------------------------------------------------------------------------
 Trust Radius=3.00D-01 FncErr=1.00D-07 GrdErr=1.00D-07 EigMax=2.50D+02 EigMin=1.00D-04
 Number of steps in this run=    100 maximum allowed number of steps=    100.
 GradGradGradGradGradGradGradGradGradGradGradGradGradGradGradGradGradGrad

 ---------------------------------------------------------------------------------------------------
                            Z-MATRIX (ANGSTROMS AND DEGREES)
   CD    Cent   Atom    N1       Length/X        N2       Alpha/Y        N3        Beta/Z          J
 ---------------------------------------------------------------------------------------------------
      1      1  C        0  -0.227000         -1.531000         -0.656000
      2      2  C        0   0.284000         -2.912000         -0.982000
      3      3  C        0  -1.610000         -1.462000         -0.185000
      4      4  O        0  -2.335000         -2.483000         -0.066000
      5      5  C        0  -2.118000         -0.130000          0.128000
      6      6  O        0  -3.442000          0.024000          0.509000
      7      7  C        0  -1.328000          0.988000          0.009000
      8      8  O        0  -1.831000          2.220000          0.388000
      9      9  C        0   0.031000          0.935000         -0.497000
     10     10  O        0   0.722000          2.005000         -0.669000
     11     11  C        0   0.539000         -0.394000         -0.793000
     12     12  C        0   1.972000         -0.430000         -1.254000
     13     13  H        0   1.026000         -3.261000         -0.254000
     14     14  H        0  -0.563000         -3.601000         -0.959000
     15     15  H        0   0.755000         -2.948000         -1.970000
     16     16  C        0  -3.751000         -0.635000          1.741000
     17     17  H        0  -3.538000         -1.702000          1.670000
     18     18  H        0  -3.183000         -0.184000          2.566000
     19     19  H        0  -4.818000         -0.468000          1.909000
     20     20  C        0  -2.133000          3.024000         -0.750000
     21     21  H        0  -2.906000          2.546000         -1.365000
     22     22  H        0  -2.515000          3.972000         -0.361000
     23     23  H        0  -1.230000          3.200000         -1.340000
     24     24  H        0   2.102000         -1.175000         -2.053000
     25     25  H        0   2.212000          0.550000         -1.672000
     26     26  C        0   2.889000         -0.783000         -0.115000
     27     27  H        0   2.880000         -1.834000          0.179000
     28     28  C        0   3.763000          1.535000          0.327000
     29     29  C        0   3.671000          0.053000          0.582000
     30     30  H        0   4.676000          1.784000         -0.233000
     31     31  H        0   2.885000          1.904000         -0.207000
     32     32  C        0   4.543000         -0.461000          1.698000
     33     33  H        0   4.450000         -1.546000          1.814000
     34     34  H        0   5.599000         -0.224000          1.512000
     35     35  H        0   4.277000          0.011000          2.653000
     36     36  H        0   3.821000          2.071000          1.282000
     37     37  H       10   2.000000(    36)      9  120.000(    74)     11  180.000(   111)      0
     38         X       37   1.000000(    37)     10   90.000(    75)      9    0.000(   112)      0
     39     38  O       37   0.952700(    38)     38   90.000(    76)     10  180.000(   113)      0
     40     39  H       39   0.952700(    39)     37  104.520(    77)     38    0.000(   114)      0
 ---------------------------------------------------------------------------------------------------
                         Z-Matrix orientation:                         
 ---------------------------------------------------------------------
 Center     Atomic      Atomic             Coordinates (Angstroms)
 Number     Number       Type             X           Y           Z
 ---------------------------------------------------------------------
      1          6           0       -0.227000   -1.531000   -0.656000
      2          6           0        0.284000   -2.912000   -0.982000
      3          6           0       -1.610000   -1.462000   -0.185000
      4          8           0       -2.335000   -2.483000   -0.066000
      5          6           0       -2.118000   -0.130000    0.128000
      6          8           0       -3.442000    0.024000    0.509000
      7          6           0       -1.328000    0.988000    0.009000
      8          8           0       -1.831000    2.220000    0.388000
      9          6           0        0.031000    0.935000   -0.497000
     10          8           0        0.722000    2.005000   -0.669000
     11          6           0        0.539000   -0.394000   -0.793000
     12          6           0        1.972000   -0.430000   -1.254000
     13          1           0        1.026000   -3.261000   -0.254000
     14          1           0       -0.563000   -3.601000   -0.959000
     15          1           0        0.755000   -2.948000   -1.970000
     16          6           0       -3.751000   -0.635000    1.741000
     17          1           0       -3.538000   -1.702000    1.670000
     18          1           0       -3.183000   -0.184000    2.566000
     19          1           0       -4.818000   -0.468000    1.909000
     20          6           0       -2.133000    3.024000   -0.750000
     21          1           0       -2.906000    2.546000   -1.365000
     22          1           0       -2.515000    3.972000   -0.361000
     23          1           0       -1.230000    3.200000   -1.340000
     24          1           0        2.102000   -1.175000   -2.053000
     25          1           0        2.212000    0.550000   -1.672000
     26          6           0        2.889000   -0.783000   -0.115000
     27          1           0        2.880000   -1.834000    0.179000
     28          6           0        3.763000    1.535000    0.327000
     29          6           0        3.671000    0.053000    0.582000
     30          1           0        4.676000    1.784000   -0.233000
     31          1           0        2.885000    1.904000   -0.207000
     32          6           0        4.543000   -0.461000    1.698000
     33          1           0        4.450000   -1.546000    1.814000
     34          1           0        5.599000   -0.224000    1.512000
     35          1           0        4.277000    0.011000    2.653000
     36          1           0        3.821000    2.071000    1.282000
     37          1           0       -0.070230    3.788298   -0.230570
     38         -1           0       -0.919720    3.341805    0.050518
     39          8           0       -0.447609    4.637772   -0.021724
     40          1           0       -1.325684    4.438963    0.289877
 ---------------------------------------------------------------------
                    Distance matrix (angstroms):
                    1          2          3          4          5
     1  C    0.000000
     2  C    1.508164   0.000000
     3  C    1.462632   2.514944   0.000000
     4  O    2.387063   2.807536   1.257866   0.000000
     5  C    2.480592   3.839431   1.459540   2.370935   0.000000
     6  O    3.756524   4.972550   2.458873   2.800201   1.386309
     7  C    2.828389   4.334815   2.473795   3.614902   1.374112
     8  O    4.211028   5.717303   3.732867   4.751667   2.381695
     9  C    2.484552   3.885697   2.921615   4.179287   2.478518
    10  O    3.661157   4.946383   4.206254   5.463607   3.641296
    11  C    1.377786   2.537926   2.475579   3.626614   2.824462
    12  C    2.530890   3.013910   3.877952   4.916951   4.327589
    13  H    2.173594   1.096517   3.192124   3.454989   4.453518
    14  H    2.118869   1.092089   2.504118   2.277577   3.955684
    15  H    2.167674   1.095117   3.314762   3.659172   4.538376
    16  C    4.355112   5.374075   2.996212   2.947102   2.350209
    17  H    4.049968   4.806754   2.686226   2.251858   2.620181
    18  H    4.575328   5.661305   3.416960   3.596099   2.661012
    19  H    5.365303   6.353064   3.957794   3.758476   3.252108
    20  C    4.938593   6.413408   4.551588   5.552991   3.273962
    21  H    4.929670   6.333447   4.374481   5.225350   3.164012
    22  H    5.966991   7.457177   5.511656   6.464244   4.150076
    23  H    4.884284   6.306893   4.817953   5.927950   3.745994
    24  H    2.739085   2.733008   4.165422   5.034481   4.863865
    25  H    3.363263   4.022279   4.568041   5.696800   4.738280
    26  C    3.249868   3.474242   4.550488   5.493867   5.055245
    27  H    3.231483   3.041253   4.520064   5.260936   5.280741
    28  C    5.127060   5.795924   6.173596   7.313301   6.115389
    29  C    4.385898   4.765406   5.547294   6.551583   5.809658
    30  H    5.933596   6.473259   7.074787   8.209099   7.067684
    31  H    4.656755   5.528081   5.615645   6.820121   5.411043
    32  C    5.425783   5.597221   6.512074   7.382890   6.851524
    33  H    5.289183   5.199916   6.381744   7.102717   6.927213
    34  H    6.352224   6.457136   7.508804   8.398900   7.840688
    35  H    5.797694   6.140131   6.699309   7.571759   6.876884
    36  H    5.754698   6.516621   6.643037   7.775111   6.438000
    37  H    5.338586   6.751601   5.471617   6.669741   4.435650
    38  X    4.972249   6.451753   4.858858   5.995411   3.673596
    39  O    6.205217   7.645681   6.211685   7.366790   5.054134
    40  H    6.143472   7.631868   5.926863   7.004209   4.639978
                    6          7          8          9         10
     6  O    0.000000
     7  C    2.376614   0.000000
     8  O    2.726239   1.383645   0.000000
     9  C    3.728765   1.451112   2.429299   0.000000
    10  O    4.759300   2.386729   2.771513   1.285288   0.000000
    11  C    4.209310   2.457400   3.720841   1.453245   2.409163
    12  C    5.711889   3.807347   4.917466   2.490734   2.798920
    13  H    5.597894   4.864616   6.214175   4.319200   5.291068
    14  H    4.856366   4.751965   6.107886   4.597997   5.758695
    15  H    5.709031   4.873133   6.241457   4.215637   5.121123
    16  C    1.430939   3.391885   3.697030   4.666591   5.725856
    17  H    2.082358   3.857346   4.465362   4.938362   6.112313
    18  H    2.083649   3.369400   3.514371   4.578638   5.523221
    19  H    2.023719   4.232025   4.296621   5.591963   6.591920
    20  C    3.506931   2.317197   1.425715   3.018414   3.032482
    21  H    3.187422   2.608702   2.082045   3.460450   3.733561
    22  H    4.147642   3.232665   2.024441   3.965348   3.800279
    23  H    4.289373   2.592749   2.075472   2.725985   2.385072
    24  H    6.223936   4.549210   5.740470   3.340999   3.732594
    25  H    6.082857   3.943248   4.835116   2.507112   2.311522
    26  C    6.412658   4.575468   5.616887   3.356428   3.574318
    27  H    6.597632   5.069502   6.218691   4.030030   4.484862
    28  C    7.363985   5.130167   5.636114   3.868695   3.234285
    29  C    7.113434   5.117866   5.916547   3.897661   3.751254
    30  H    8.339670   6.061369   6.551091   4.729326   3.984100
    31  H    6.639125   4.316837   4.763878   3.027933   2.214094
    32  C    8.087594   6.278612   7.037879   5.208165   5.126781
    33  H    8.151784   6.562352   7.461045   5.569887   5.716019
    34  H    9.099846   7.191056   7.901988   6.031748   5.788811
    35  H    8.011234   6.273858   6.878777   5.367010   5.258303
    36  H    7.585440   5.413467   5.724207   4.338138   3.662589
    37  H    5.107420   3.079131   2.437724   2.867497   2.000000
    38  X    4.192843   2.389313   1.484174   2.645063   2.236068
    39  O    5.525843   3.754579   2.815540   3.763705   2.952700
    40  H    4.900888   3.462375   2.277887   3.838948   3.322143
                   11         12         13         14         15
    11  C    0.000000
    12  C    1.505758   0.000000
    13  H    2.957597   3.147932   0.000000
    14  H    3.395116   4.070441   1.771312   0.000000
    15  H    2.820443   2.886879   1.765238   1.784840   0.000000
    16  C    4.988320   6.462567   5.804794   5.123524   6.278975
    17  H    4.939551   6.366150   5.192529   4.400962   5.764717
    18  H    5.017994   6.420821   5.927564   5.564703   6.612325
    19  H    6.000311   7.490668   6.828745   6.012166   7.228787
    20  C    4.338681   5.388428   7.051703   6.811696   6.744904
    21  H    4.564954   5.715224   7.100436   6.590910   6.629704
    22  H    5.345605   6.348876   8.053969   7.843356   7.821009
    23  H    4.042945   4.841188   6.929174   6.844242   6.491150
    24  H    2.154189   1.100148   2.957291   3.766237   2.228189
    25  H    2.112512   1.092119   4.235687   5.043788   3.801007
    26  C    2.476591   1.504267   3.103317   4.535390   3.561208
    27  H    2.915247   2.202083   2.379314   4.033805   3.220997
    28  C    3.920410   3.093294   5.552508   6.837146   5.866989
    29  C    3.449617   2.547702   4.321749   5.801134   4.901200
    30  H    4.708721   3.640859   6.226955   7.548008   6.386175
    31  H    3.335853   2.716125   5.489564   6.539055   5.584530
    32  C    4.716099   3.914755   4.900979   6.556713   5.829952
    33  H    4.839367   4.098605   4.352198   6.086273   5.471497
    34  H    5.562870   4.565996   5.766667   7.448504   6.558112
    35  H    5.100155   4.557648   5.452122   7.036952   6.521679
    36  H    4.599280   4.013116   6.213014   7.510867   6.720582
    37  H    4.263696   4.797098   7.134064   7.441449   7.006021
    38  X    4.098247   4.928522   6.890254   7.024879   6.815338
    39  O    5.185267   5.749376   8.038412   8.292717   7.923760
    40  H    5.292183   6.079891   8.069427   8.172049   8.000220
                   16         17         18         19         20
    16  C    0.000000
    17  H    1.090366   0.000000
    18  H    1.098476   1.798100   0.000000
    19  H    1.092978   1.793956   1.784805   0.000000
    20  C    4.712885   5.492313   4.731767   5.145247   0.000000
    21  H    4.525486   5.258912   4.793995   4.843451   1.097378
    22  H    5.212538   6.112754   5.126976   5.492750   1.093595
    23  H    5.527678   6.198110   5.524717   6.073217   1.092925
    24  H    6.995973   6.778500   7.088615   8.005229   6.104476
    25  H    6.972099   7.021607   6.899668   7.954922   5.084268
    26  C    6.896103   6.733284   6.664514   7.974562   6.333795
    27  H    6.917196   6.590238   6.721625   8.007375   7.042256
    28  C    7.947861   8.098544   7.497666   8.952558   6.175748
    29  C    7.543388   7.498897   7.139310   8.607874   6.654884
    30  H    8.986800   9.123782   8.571541   9.989780   6.940272
    31  H    7.367341   7.601401   6.990701   8.333069   5.170065
    32  C    8.295937   8.175783   7.779539   9.363380   7.918769
    33  H    8.251766   7.990821   7.789945   9.330966   8.413969
    34  H    9.361830   9.257117   8.845114  10.427417   8.686194
    35  H    8.105421   8.060700   7.463055   9.137943   7.857905
    36  H    8.054086   8.278947   7.469250   9.026183   6.362967
    37  H    6.082822   6.766163   5.769687   6.725708   2.260305
    38  X    5.166126   5.909152   4.886859   5.758920   1.487911
    39  O    6.466971   7.252941   6.117856   6.992633   2.444420
    40  H    5.808013   6.671620   5.477421   6.236675   1.932673
                   21         22         23         24         25
    21  H    0.000000
    22  H    1.787281   0.000000
    23  H    1.799254   1.790433   0.000000
    24  H    6.276882   7.118368   5.545378   0.000000
    25  H    5.502017   5.981081   4.356614   1.769996   0.000000
    26  C    6.799027   7.202344   5.859273   2.128116   2.158580
    27  H    7.419308   7.944008   6.673876   2.453852   3.091259
    28  C    6.954175   6.769461   5.520975   3.970821   2.715111
    29  C    7.298136   7.383387   6.133310   3.303478   2.730606
    30  H    7.703817   7.517593   6.173438   4.323605   3.108822
    31  H    5.940438   5.784491   4.460553   3.674377   2.105343
    32  C    8.597187   8.585240   7.480635   4.531918   4.220496
    33  H    8.997846   9.148233   8.045783   4.539211   4.642635
    34  H    9.396013   9.324781   8.154319   5.083565   4.712611
    35  H    8.611971   8.420510   7.512711   5.318238   4.822901
    36  H    7.244637   6.816021   5.801907   4.961220   3.691672
    37  H    3.297245   2.455129   1.709385   5.716131   4.215788
    38  X    2.565600   1.763919   1.431755   5.827273   4.535297
    39  O    3.496225   2.198288   2.101708   6.664451   5.148476
    40  H    2.969735   1.433934   2.049557   6.982455   5.611435
                   26         27         28         29         30
    26  C    0.000000
    27  H    1.091384   0.000000
    28  C    2.516419   3.485937   0.000000
    29  C    1.340235   2.085392   1.506590   0.000000
    30  H    3.129981   4.060207   1.099623   2.161160   0.000000
    31  H    2.688578   3.757880   1.091880   2.160213   1.795204
    32  C    2.475150   2.637813   2.544024   1.506664   2.964199
    33  H    2.596138   2.284966   3.489369   2.163669   3.915378
    34  H    3.209939   3.429570   2.805210   2.158428   2.815851
    35  H    3.196687   3.387670   2.827905   2.158250   3.410532
    36  H    3.311427   4.165467   1.096670   2.141220   1.763128
    37  H    5.446757   6.362534   4.481282   5.348787   5.152079
    38  X    5.616740   6.422098   5.026814   5.672162   5.815430
    39  O    6.366037   7.279911   5.241949   6.192540   5.868562
    40  H    6.722826   7.553154   5.859103   6.654988   6.583498
                   31         32         33         34         35
    31  H    0.000000
    32  C    3.459944   0.000000
    33  H    4.293736   1.095139   0.000000
    34  H    3.853458   1.098135   1.777383   0.000000
    35  H    3.701448   1.097982   1.777104   1.762042   0.000000
    36  H    1.766665   2.665589   3.709630   2.912252   2.516183
    37  H    3.504928   6.561845   7.284743   7.160674   6.440603
    38  X    4.075475   6.856883   7.472242   7.572622   6.698737
    39  O    4.314408   7.339012   8.099104   7.908894   7.133238
    40  H    4.939918   7.773925   8.455842   8.437302   7.522053
                   36         37         38         39         40
    36  H    0.000000
    37  H    4.514272   0.000000
    38  X    5.060229   1.000000   0.000000
    39  O    5.148692   0.952700   1.381172   0.000000
    40  H    5.751514   1.506783   1.194092   0.952700   0.000000
 Stoichiometry    C14H20O5(1-,2)
 Framework group  C1[X(C14H20O5)]
 Deg. of freedom   111
 Full point group                 C1      NOp   1
 Largest Abelian subgroup         C1      NOp   1
 Largest concise Abelian subgroup C1      NOp   1
                         Standard orientation:                         
 ---------------------------------------------------------------------
 Center     Atomic      Atomic             Coordinates (Angstroms)
 Number     Number       Type             X           Y           Z
 ---------------------------------------------------------------------
      1          6           0       -0.074865   -1.853809   -0.656518
      2          6           0        0.522694   -3.199419   -0.983345
      3          6           0       -1.459603   -1.872913   -0.185959
      4          8           0       -2.118504   -2.937879   -0.067962
      5          6           0       -2.051060   -0.576005    0.127834
      6          8           0       -3.382273   -0.506474    0.508477
      7          6           0       -1.333434    0.589884    0.009932
      8          8           0       -1.913586    1.787260    0.389653
      9          6           0        0.026350    0.623461   -0.495624
     10          8           0        0.648232    1.735215   -0.666597
     11          6           0        0.617611   -0.670465   -0.792415
     12          6           0        2.050156   -0.615268   -1.252932
     13          1           0        1.285088   -3.501260   -0.255337
     14          1           0       -0.278964   -3.940708   -0.961149
     15          1           0        0.995333   -3.204767   -1.971204
     16          6           0       -3.649285   -1.184652    1.739885
     17          1           0       -3.369098   -2.235962    1.668181
     18          1           0       -3.111251   -0.699196    2.565416
     19          1           0       -4.724773   -1.085706    1.907628
     20          6           0       -2.265561    2.571369   -0.747866
     21          1           0       -3.006538    2.045823   -1.363490
     22          1           0       -2.706968    3.492973   -0.358309
     23          1           0       -1.375342    2.804663   -1.337417
     24          1           0        2.227336   -1.349935   -2.052430
     25          1           0        2.227720    0.378281   -1.670131
     26          6           0        2.987325   -0.910324   -0.113865
     27          1           0        3.044832   -1.960004    0.179364
     28          6           0        3.712591    1.458053    0.330139
     29          6           0        3.714580   -0.026989    0.584024
     30          1           0        4.608156    1.764812   -0.229354
     31          1           0        2.813143    1.771094   -0.203903
     32          6           0        4.617046   -0.485556    1.699957
     33          1           0        4.592930   -1.574355    1.815131
     34          1           0        5.655968   -0.181996    1.514505
     35          1           0        4.321385   -0.032072    2.655207
     36          1           0        3.736225    1.995933    1.285551
     37          1           0       -0.255512    3.464414   -0.227145
     38          8           0       -0.686010    4.288118   -0.017812
     39          1           0       -1.549824    4.033850    0.293332
 ---------------------------------------------------------------------
 Rotational constants (GHZ):           0.4202713           0.2826867           0.1931971
 Standard basis: 6-31G(d) (6D, 7F)
 There are   325 symmetry adapted cartesian basis functions of A   symmetry.
 There are   325 symmetry adapted basis functions of A   symmetry.
   325 basis functions,   612 primitive gaussians,   325 cartesian basis functions
    73 alpha electrons       72 beta electrons
       nuclear repulsion energy      1517.9686090177 Hartrees.
 NAtoms=   39 NActive=   39 NUniq=   39 SFac= 1.00D+00 NAtFMM=   60 NAOKFM=F Big=F
 Integral buffers will be    131072 words long.
 Raffenetti 2 integral format.
 Two-electron integral symmetry is turned on.
 One-electron integrals computed using PRISM.
 NBasis=   325 RedAO= T EigKep=  3.07D-04  NBF=   325
 NBsUse=   325 1.00D-06 EigRej= -1.00D+00 NBFU=   325
 ExpMin= 1.61D-01 ExpMax= 5.48D+03 ExpMxC= 8.25D+02 IAcc=3 IRadAn=         5 AccDes= 0.00D+00
 Harris functional with IExCor=  205 and IRadAn=       5 diagonalized for initial guess.
 HarFok:  IExCor=  205 AccDes= 0.00D+00 IRadAn=         5 IDoV= 1 UseB2=F ITyADJ=14
 ICtDFT=  3500011 ScaDFX=  1.000000  1.000000  1.000000  1.000000
 FoFCou: FMM=F IPFlag=           0 FMFlag=      100000 FMFlg1=           0
         NFxFlg=           0 DoJE=T BraDBF=F KetDBF=T FulRan=T
         wScrn=  0.000000 ICntrl=       500 IOpCl=  0 I1Cent=   200000004 NGrid=           0
         NMat0=    1 NMatS0=      1 NMatT0=    0 NMatD0=    1 NMtDS0=    0 NMtDT0=    0
 Petite list used in FoFCou.
 Initial guess <Sx>= 0.0000 <Sy>= 0.0000 <Sz>= 0.5000 <S**2>= 0.7500 S= 0.5000
 Requested convergence on RMS density matrix=1.00D-08 within 128 cycles.
 Requested convergence on MAX density matrix=1.00D-06.
 Requested convergence on             energy=1.00D-06.
 No special actions if energy rises.
 Integral accuracy reduced to 1.0D-05 until final iterations.
 Initial convergence to 1.0D-05 achieved.  Increase integral accuracy.
 Restarting incremental Fock formation.
 SCF Done:  E(UHF) =  -916.026929951     A.U. after   42 cycles
            NFock= 42  Conv=0.62D-08     -V/T= 2.0017
 <Sx>= 0.0000 <Sy>= 0.0000 <Sz>= 0.5000 <S**2>= 0.9678 S= 0.6035
 <L.S>=  0.00000000000    
 Annihilation of the first spin contaminant:
 S**2 before annihilation     0.9678,   after     0.7872

 **********************************************************************

            Population analysis using the SCF Density.

 **********************************************************************

 Orbital symmetries:
 Alpha Orbitals:
       Occupied  (A) (A) (A) (A) (A) (A) (A) (A) (A) (A) (A) (A)
                 (A) (A) (A) (A) (A) (A) (A) (A) (A) (A) (A) (A)
                 (A) (A) (A) (A) (A) (A) (A) (A) (A) (A) (A) (A)
                 (A) (A) (A) (A) (A) (A) (A) (A) (A) (A) (A) (A)
                 (A) (A) (A) (A) (A) (A) (A) (A) (A) (A) (A) (A)
                 (A) (A) (A) (A) (A) (A) (A) (A) (A) (A) (A) (A)
                 (A)
       Virtual   (A) (A) (A) (A) (A) (A) (A) (A) (A) (A) (A) (A)
                 (A) (A) (A) (A) (A) (A) (A) (A) (A) (A) (A) (A)
                 (A) (A) (A) (A) (A) (A) (A) (A) (A) (A) (A) (A)
                 (A) (A) (A) (A) (A) (A) (A) (A) (A) (A) (A) (A)
                 (A) (A) (A) (A) (A) (A) (A) (A) (A) (A) (A) (A)
                 (A) (A) (A) (A) (A) (A) (A) (A) (A) (A) (A) (A)
                 (A) (A) (A) (A) (A) (A) (A) (A) (A) (A) (A) (A)
                 (A) (A) (A) (A) (A) (A) (A) (A) (A) (A) (A) (A)
                 (A) (A) (A) (A) (A) (A) (A) (A) (A) (A) (A) (A)
                 (A) (A) (A) (A) (A) (A) (A) (A) (A) (A) (A) (A)
                 (A) (A) (A) (A) (A) (A) (A) (A) (A) (A) (A) (A)
                 (A) (A) (A) (A) (A) (A) (A) (A) (A) (A) (A) (A)
                 (A) (A) (A) (A) (A) (A) (A) (A) (A) (A) (A) (A)
                 (A) (A) (A) (A) (A) (A) (A) (A) (A) (A) (A) (A)
                 (A) (A) (A) (A) (A) (A) (A) (A) (A) (A) (A) (A)
                 (A) (A) (A) (A) (A) (A) (A) (A) (A) (A) (A) (A)
                 (A) (A) (A) (A) (A) (A) (A) (A) (A) (A) (A) (A)
                 (A) (A) (A) (A) (A) (A) (A) (A) (A) (A) (A) (A)
                 (A) (A) (A) (A) (A) (A) (A) (A) (A) (A) (A) (A)
                 (A) (A) (A) (A) (A) (A) (A) (A) (A) (A) (A) (A)
                 (A) (A) (A) (A) (A) (A) (A) (A) (A) (A) (A) (A)
 Beta  Orbitals:
       Occupied  (A) (A) (A) (A) (A) (A) (A) (A) (A) (A) (A) (A)
                 (A) (A) (A) (A) (A) (A) (A) (A) (A) (A) (A) (A)
                 (A) (A) (A) (A) (A) (A) (A) (A) (A) (A) (A) (A)
                 (A) (A) (A) (A) (A) (A) (A) (A) (A) (A) (A) (A)
                 (A) (A) (A) (A) (A) (A) (A) (A) (A) (A) (A) (A)
                 (A) (A) (A) (A) (A) (A) (A) (A) (A) (A) (A) (A)
       Virtual   (A) (A) (A) (A) (A) (A) (A) (A) (A) (A) (A) (A)
                 (A) (A) (A) (A) (A) (A) (A) (A) (A) (A) (A) (A)
                 (A) (A) (A) (A) (A) (A) (A) (A) (A) (A) (A) (A)
                 (A) (A) (A) (A) (A) (A) (A) (A) (A) (A) (A) (A)
                 (A) (A) (A) (A) (A) (A) (A) (A) (A) (A) (A) (A)
                 (A) (A) (A) (A) (A) (A) (A) (A) (A) (A) (A) (A)
                 (A) (A) (A) (A) (A) (A) (A) (A) (A) (A) (A) (A)
                 (A) (A) (A) (A) (A) (A) (A) (A) (A) (A) (A) (A)
                 (A) (A) (A) (A) (A) (A) (A) (A) (A) (A) (A) (A)
                 (A) (A) (A) (A) (A) (A) (A) (A) (A) (A) (A) (A)
                 (A) (A) (A) (A) (A) (A) (A) (A) (A) (A) (A) (A)
                 (A) (A) (A) (A) (A) (A) (A) (A) (A) (A) (A) (A)
                 (A) (A) (A) (A) (A) (A) (A) (A) (A) (A) (A) (A)
                 (A) (A) (A) (A) (A) (A) (A) (A) (A) (A) (A) (A)
                 (A) (A) (A) (A) (A) (A) (A) (A) (A) (A) (A) (A)
                 (A) (A) (A) (A) (A) (A) (A) (A) (A) (A) (A) (A)
                 (A) (A) (A) (A) (A) (A) (A) (A) (A) (A) (A) (A)
                 (A) (A) (A) (A) (A) (A) (A) (A) (A) (A) (A) (A)
                 (A) (A) (A) (A) (A) (A) (A) (A) (A) (A) (A) (A)
                 (A) (A) (A) (A) (A) (A) (A) (A) (A) (A) (A) (A)
                 (A) (A) (A) (A) (A) (A) (A) (A) (A) (A) (A) (A)
                 (A)
 The electronic state is 2-A.
 Alpha  occ. eigenvalues --  -20.45156 -20.44774 -20.42181 -20.38967 -20.36064
 Alpha  occ. eigenvalues --  -11.16511 -11.15788 -11.15701 -11.15076 -11.14455
 Alpha  occ. eigenvalues --  -11.14031 -11.12357 -11.11830 -11.11072 -11.10802
 Alpha  occ. eigenvalues --  -11.10263 -11.10062 -11.09518 -11.09395  -1.27625
 Alpha  occ. eigenvalues --   -1.25631  -1.23505  -1.19213  -1.17559  -1.00096
 Alpha  occ. eigenvalues --   -0.97734  -0.91868  -0.88700  -0.83585  -0.82667
 Alpha  occ. eigenvalues --   -0.82459  -0.79586  -0.76747  -0.74610  -0.65304
 Alpha  occ. eigenvalues --   -0.64716  -0.59688  -0.58762  -0.56929  -0.54930
 Alpha  occ. eigenvalues --   -0.53797  -0.52274  -0.51938  -0.50765  -0.49678
 Alpha  occ. eigenvalues --   -0.49049  -0.48575  -0.48031  -0.47304  -0.46227
 Alpha  occ. eigenvalues --   -0.45460  -0.44081  -0.43290  -0.42742  -0.41716
 Alpha  occ. eigenvalues --   -0.41014  -0.40656  -0.40305  -0.39798  -0.39634
 Alpha  occ. eigenvalues --   -0.38741  -0.38244  -0.36999  -0.35343  -0.34440
 Alpha  occ. eigenvalues --   -0.34273  -0.30911  -0.28671  -0.28272  -0.25557
 Alpha  occ. eigenvalues --   -0.21928  -0.19684  -0.11260
 Alpha virt. eigenvalues --    0.27154   0.30091   0.32057   0.33603   0.35304
 Alpha virt. eigenvalues --    0.36382   0.37893   0.38590   0.39951   0.40632
 Alpha virt. eigenvalues --    0.41071   0.42311   0.42321   0.43278   0.43520
 Alpha virt. eigenvalues --    0.44150   0.45108   0.45713   0.45833   0.46077
 Alpha virt. eigenvalues --    0.47326   0.50036   0.50505   0.50695   0.51122
 Alpha virt. eigenvalues --    0.52899   0.53911   0.55534   0.57117   0.58372
 Alpha virt. eigenvalues --    0.59590   0.62432   0.63895   0.64491   0.67239
 Alpha virt. eigenvalues --    0.69384   0.72217   0.73698   0.74715   0.75844
 Alpha virt. eigenvalues --    0.80257   0.82336   0.82852   0.84026   0.86153
 Alpha virt. eigenvalues --    0.86608   0.87673   0.88018   0.88384   0.89476
 Alpha virt. eigenvalues --    0.90587   0.91088   0.92116   0.93519   0.95066
 Alpha virt. eigenvalues --    0.95607   0.96629   0.97924   0.98136   1.01752
 Alpha virt. eigenvalues --    1.02183   1.03739   1.04814   1.05604   1.07136
 Alpha virt. eigenvalues --    1.07315   1.08192   1.09716   1.09943   1.10110
 Alpha virt. eigenvalues --    1.11821   1.12924   1.13232   1.14954   1.16014
 Alpha virt. eigenvalues --    1.17519   1.19158   1.19861   1.21299   1.23194
 Alpha virt. eigenvalues --    1.23319   1.23619   1.24087   1.24745   1.25767
 Alpha virt. eigenvalues --    1.26181   1.26790   1.27357   1.27912   1.28195
 Alpha virt. eigenvalues --    1.28697   1.30071   1.30649   1.31182   1.31505
 Alpha virt. eigenvalues --    1.32886   1.33939   1.34334   1.34759   1.35553
 Alpha virt. eigenvalues --    1.36637   1.38642   1.39059   1.40961   1.41050
 Alpha virt. eigenvalues --    1.41815   1.45098   1.47171   1.48824   1.49171
 Alpha virt. eigenvalues --    1.50066   1.51026   1.53838   1.54274   1.56205
 Alpha virt. eigenvalues --    1.57711   1.58988   1.59862   1.62132   1.63037
 Alpha virt. eigenvalues --    1.64156   1.65771   1.66270   1.69858   1.72807
 Alpha virt. eigenvalues --    1.74513   1.75855   1.77426   1.77977   1.78801
 Alpha virt. eigenvalues --    1.79682   1.82513   1.83168   1.84426   1.86191
 Alpha virt. eigenvalues --    1.86816   1.88099   1.88508   1.92004   1.92763
 Alpha virt. eigenvalues --    1.97174   2.00453   2.03798   2.06690   2.10525
 Alpha virt. eigenvalues --    2.11182   2.13411   2.14138   2.16540   2.18249
 Alpha virt. eigenvalues --    2.18975   2.19863   2.20837   2.21669   2.22847
 Alpha virt. eigenvalues --    2.24058   2.25741   2.26995   2.27873   2.28154
 Alpha virt. eigenvalues --    2.30374   2.31368   2.32756   2.32986   2.34130
 Alpha virt. eigenvalues --    2.36062   2.38066   2.38834   2.41103   2.41206
 Alpha virt. eigenvalues --    2.41849   2.45484   2.46817   2.47530   2.49964
 Alpha virt. eigenvalues --    2.50427   2.52098   2.53828   2.54426   2.55326
 Alpha virt. eigenvalues --    2.56612   2.58735   2.59890   2.62029   2.64827
 Alpha virt. eigenvalues --    2.65777   2.67566   2.68442   2.69620   2.70465
 Alpha virt. eigenvalues --    2.71844   2.73087   2.73359   2.76880   2.78731
 Alpha virt. eigenvalues --    2.81257   2.82395   2.82971   2.84444   2.85282
 Alpha virt. eigenvalues --    2.86390   2.87332   2.89929   2.90046   2.92719
 Alpha virt. eigenvalues --    2.94120   2.94463   2.96901   3.00024   3.01999
 Alpha virt. eigenvalues --    3.04151   3.06890   3.09485   3.12213   3.12331
 Alpha virt. eigenvalues --    3.15119   3.16193   3.17478   3.23851   3.25770
 Alpha virt. eigenvalues --    3.30243   3.32770   3.37629   3.41706   3.45776
 Alpha virt. eigenvalues --    3.46659   3.51240   3.54392   3.55404   3.58395
 Alpha virt. eigenvalues --    3.61330   3.85562   3.92803   4.33352   4.44392
 Alpha virt. eigenvalues --    4.57502   4.63904   4.67952   4.74803   4.76060
 Alpha virt. eigenvalues --    4.78533   4.80983   4.82721   4.84125   4.90943
 Alpha virt. eigenvalues --    4.92543   4.98553   5.07031   5.12603   5.22312
 Alpha virt. eigenvalues --    5.35852   5.81106
  Beta  occ. eigenvalues --  -20.45132 -20.44770 -20.40115 -20.38972 -20.34852
  Beta  occ. eigenvalues --  -11.16984 -11.15746 -11.15127 -11.14872 -11.14704
  Beta  occ. eigenvalues --  -11.13813 -11.12339 -11.11985 -11.10690 -11.10394
  Beta  occ. eigenvalues --  -11.10249 -11.10035 -11.09958 -11.09500  -1.27399
  Beta  occ. eigenvalues --   -1.25158  -1.19400  -1.19222  -1.14872  -0.99593
  Beta  occ. eigenvalues --   -0.97175  -0.91644  -0.87991  -0.83064  -0.82637
  Beta  occ. eigenvalues --   -0.82410  -0.79246  -0.75655  -0.73898  -0.64748
  Beta  occ. eigenvalues --   -0.64016  -0.59636  -0.58760  -0.56893  -0.54510
  Beta  occ. eigenvalues --   -0.53549  -0.51978  -0.51624  -0.49965  -0.49515
  Beta  occ. eigenvalues --   -0.49045  -0.48304  -0.48010  -0.46296  -0.45031
  Beta  occ. eigenvalues --   -0.44530  -0.43185  -0.42722  -0.41673  -0.40818
  Beta  occ. eigenvalues --   -0.40431  -0.40071  -0.39547  -0.38770  -0.38612
  Beta  occ. eigenvalues --   -0.37258  -0.36186  -0.35364  -0.34612  -0.32969
  Beta  occ. eigenvalues --   -0.31346  -0.30189  -0.26894  -0.24663  -0.22053
  Beta  occ. eigenvalues --   -0.19071  -0.18466
  Beta virt. eigenvalues --    0.20340   0.29373   0.31731   0.33762   0.35270
  Beta virt. eigenvalues --    0.36373   0.36953   0.38749   0.39229   0.40126
  Beta virt. eigenvalues --    0.40970   0.41208   0.42300   0.42585   0.43329
  Beta virt. eigenvalues --    0.43487   0.44156   0.45228   0.45804   0.46045
  Beta virt. eigenvalues --    0.46323   0.47768   0.50500   0.50597   0.50875
  Beta virt. eigenvalues --    0.51561   0.53352   0.54220   0.55681   0.57727
  Beta virt. eigenvalues --    0.58705   0.59774   0.62969   0.64151   0.64816
  Beta virt. eigenvalues --    0.67877   0.69570   0.72399   0.73800   0.75017
  Beta virt. eigenvalues --    0.76452   0.80459   0.82677   0.83048   0.84516
  Beta virt. eigenvalues --    0.86234   0.86746   0.88060   0.88258   0.88563
  Beta virt. eigenvalues --    0.89778   0.90929   0.91137   0.92231   0.93881
  Beta virt. eigenvalues --    0.95326   0.95539   0.96885   0.97673   0.98037
  Beta virt. eigenvalues --    1.02175   1.02511   1.03702   1.05020   1.05790
  Beta virt. eigenvalues --    1.07421   1.07502   1.08488   1.09790   1.10027
  Beta virt. eigenvalues --    1.11087   1.11663   1.13041   1.13796   1.15427
  Beta virt. eigenvalues --    1.16766   1.17774   1.19183   1.19797   1.21344
  Beta virt. eigenvalues --    1.23372   1.23641   1.23687   1.24330   1.24792
  Beta virt. eigenvalues --    1.25988   1.26199   1.27076   1.27447   1.27941
  Beta virt. eigenvalues --    1.28386   1.28869   1.30228   1.30725   1.31171
  Beta virt. eigenvalues --    1.31740   1.33076   1.34087   1.34470   1.35080
  Beta virt. eigenvalues --    1.35649   1.37037   1.38824   1.39309   1.41060
  Beta virt. eigenvalues --    1.41280   1.42058   1.46810   1.48643   1.49288
  Beta virt. eigenvalues --    1.50781   1.51740   1.52099   1.54469   1.55237
  Beta virt. eigenvalues --    1.56702   1.58047   1.59678   1.60088   1.63000
  Beta virt. eigenvalues --    1.63893   1.65176   1.65940   1.66893   1.69929
  Beta virt. eigenvalues --    1.72994   1.74510   1.76014   1.77898   1.78629
  Beta virt. eigenvalues --    1.79759   1.80640   1.82577   1.83488   1.84542
  Beta virt. eigenvalues --    1.86359   1.87108   1.88545   1.88772   1.92036
  Beta virt. eigenvalues --    1.92847   1.97313   2.00764   2.04173   2.07071
  Beta virt. eigenvalues --    2.10970   2.11390   2.13680   2.14695   2.17224
  Beta virt. eigenvalues --    2.18758   2.19407   2.20007   2.20981   2.22070
  Beta virt. eigenvalues --    2.23932   2.24209   2.26475   2.27121   2.28281
  Beta virt. eigenvalues --    2.29067   2.30658   2.32157   2.33107   2.33911
  Beta virt. eigenvalues --    2.34946   2.36631   2.38405   2.39467   2.41097
  Beta virt. eigenvalues --    2.41824   2.42279   2.45892   2.47009   2.47953
  Beta virt. eigenvalues --    2.50416   2.51089   2.52404   2.53994   2.54852
  Beta virt. eigenvalues --    2.55591   2.57215   2.59270   2.60014   2.62096
  Beta virt. eigenvalues --    2.65180   2.66145   2.67930   2.68461   2.69793
  Beta virt. eigenvalues --    2.70683   2.72125   2.73154   2.74026   2.77081
  Beta virt. eigenvalues --    2.78940   2.81452   2.82649   2.83027   2.84480
  Beta virt. eigenvalues --    2.85608   2.86374   2.87505   2.90007   2.90212
  Beta virt. eigenvalues --    2.92971   2.94197   2.94665   2.97125   3.00646
  Beta virt. eigenvalues --    3.02179   3.04547   3.08016   3.10017   3.12521
  Beta virt. eigenvalues --    3.12719   3.15435   3.16358   3.17723   3.24208
  Beta virt. eigenvalues --    3.26054   3.30596   3.33021   3.37627   3.42117
  Beta virt. eigenvalues --    3.46059   3.46755   3.51489   3.54618   3.55634
  Beta virt. eigenvalues --    3.58817   3.61684   3.85661   3.92887   4.33505
  Beta virt. eigenvalues --    4.44855   4.57768   4.64046   4.68018   4.75219
  Beta virt. eigenvalues --    4.76307   4.78697   4.81073   4.82738   4.84122
  Beta virt. eigenvalues --    4.91101   4.92676   4.98597   5.07328   5.12591
  Beta virt. eigenvalues --    5.22435   5.36355   5.81390
          Condensed to atoms (all electrons):
               1          2          3          4          5          6
     1  C    5.121423   0.312018   0.453482  -0.066941  -0.092751   0.003195
     2  C    0.312018   5.141165  -0.031938  -0.012635   0.004599  -0.000038
     3  C    0.453482  -0.031938   4.458470   0.445848   0.395799  -0.049560
     4  O   -0.066941  -0.012635   0.445848   8.313670  -0.070218  -0.000019
     5  C   -0.092751   0.004599   0.395799  -0.070218   4.945531   0.231614
     6  O    0.003195  -0.000038  -0.049560  -0.000019   0.231614   8.436485
     7  C   -0.008384  -0.000424  -0.045293   0.004117   0.465269  -0.059759
     8  O   -0.000040   0.000001   0.002184  -0.000010  -0.054106  -0.002853
     9  C   -0.033087   0.002099  -0.012904  -0.000053  -0.035328   0.001832
    10  O    0.003504  -0.000036  -0.000102  -0.000000   0.004328  -0.000008
    11  C    0.532301  -0.044985  -0.033803   0.003779  -0.010296  -0.000141
    12  C   -0.045877  -0.014816   0.002296  -0.000046  -0.000338   0.000001
    13  H   -0.039095   0.385647  -0.000876   0.000311  -0.000116   0.000000
    14  H   -0.042639   0.392166  -0.003452   0.014483   0.000729  -0.000006
    15  H   -0.043455   0.389492   0.000871   0.000277   0.000013   0.000000
    16  C   -0.000366  -0.000002  -0.004862  -0.009860  -0.045415   0.214055
    17  H   -0.000185   0.000012   0.000214   0.008952  -0.006222  -0.034389
    18  H    0.000094  -0.000001   0.000346   0.000321  -0.001386  -0.040042
    19  H    0.000006  -0.000000  -0.000089   0.000226   0.004726  -0.036321
    20  C    0.000020  -0.000000  -0.000101   0.000001  -0.005545   0.000574
    21  H   -0.000008   0.000000  -0.000170   0.000000   0.001653   0.000726
    22  H   -0.000001   0.000000   0.000004  -0.000000  -0.000098  -0.000016
    23  H   -0.000007   0.000000   0.000050  -0.000000   0.000125   0.000013
    24  H   -0.000223  -0.002251   0.000206  -0.000000  -0.000027  -0.000000
    25  H    0.002083   0.000091  -0.000001   0.000000  -0.000047   0.000000
    26  C   -0.001304  -0.000571   0.000066   0.000001  -0.000028  -0.000000
    27  H   -0.000098  -0.000759  -0.000017   0.000000  -0.000000   0.000000
    28  C   -0.000007  -0.000001  -0.000001  -0.000000   0.000003  -0.000000
    29  C    0.000189   0.000019   0.000009   0.000000  -0.000005  -0.000000
    30  H    0.000000  -0.000000   0.000000   0.000000  -0.000000   0.000000
    31  H   -0.000010  -0.000001   0.000001  -0.000000  -0.000005   0.000000
    32  C    0.000001   0.000001  -0.000000   0.000000   0.000000  -0.000000
    33  H    0.000001  -0.000002   0.000000   0.000000  -0.000000   0.000000
    34  H    0.000000  -0.000000   0.000000   0.000000  -0.000000  -0.000000
    35  H    0.000001   0.000000  -0.000000  -0.000000  -0.000000   0.000000
    36  H    0.000000   0.000000  -0.000000  -0.000000  -0.000000   0.000000
    37  H   -0.000010   0.000000  -0.000002   0.000000   0.000100  -0.000000
    38  O    0.000000  -0.000000   0.000000  -0.000000  -0.000023   0.000000
    39  H   -0.000000  -0.000000  -0.000000   0.000000  -0.000003  -0.000000
               7          8          9         10         11         12
     1  C   -0.008384  -0.000040  -0.033087   0.003504   0.532301  -0.045877
     2  C   -0.000424   0.000001   0.002099  -0.000036  -0.044985  -0.014816
     3  C   -0.045293   0.002184  -0.012904  -0.000102  -0.033803   0.002296
     4  O    0.004117  -0.000010  -0.000053  -0.000000   0.003779  -0.000046
     5  C    0.465269  -0.054106  -0.035328   0.004328  -0.010296  -0.000338
     6  O   -0.059759  -0.002853   0.001832  -0.000008  -0.000141   0.000001
     7  C    4.992304   0.209315   0.410837  -0.071418  -0.098422   0.004502
     8  O    0.209315   8.488822  -0.046201  -0.001820   0.003756  -0.000053
     9  C    0.410837  -0.046201   4.442325   0.409058   0.446527  -0.032747
    10  O   -0.071418  -0.001820   0.409058   8.473609  -0.073996  -0.008014
    11  C   -0.098422   0.003756   0.446527  -0.073996   5.209639   0.298723
    12  C    0.004502  -0.000053  -0.032747  -0.008014   0.298723   5.133223
    13  H    0.000030   0.000000  -0.000040   0.000000  -0.001612   0.000165
    14  H   -0.000025   0.000000  -0.000026   0.000000   0.002237   0.000187
    15  H   -0.000014  -0.000000   0.000098  -0.000000  -0.001237  -0.001999
    16  C   -0.002464   0.000270  -0.000031   0.000001   0.000021  -0.000000
    17  H   -0.000349   0.000007   0.000015  -0.000000  -0.000006   0.000000
    18  H    0.002668   0.000175  -0.000076  -0.000000  -0.000012   0.000000
    19  H   -0.000017  -0.000011   0.000003  -0.000000  -0.000001   0.000000
    20  C   -0.047608   0.184663  -0.005087  -0.007300  -0.000242   0.000002
    21  H   -0.000771  -0.033525   0.000937   0.000166   0.000080  -0.000001
    22  H    0.004915  -0.044686  -0.000165   0.000366   0.000010  -0.000000
    23  H   -0.006240  -0.036959  -0.000434   0.008822  -0.000614   0.000006
    24  H    0.000062   0.000000   0.001911   0.000318  -0.055741   0.406678
    25  H    0.000599  -0.000003  -0.003420   0.011518  -0.041026   0.400292
    26  C   -0.000034   0.000001  -0.003996  -0.000203  -0.065991   0.335089
    27  H    0.000005  -0.000000   0.000149  -0.000023   0.000514  -0.041286
    28  C   -0.000078  -0.000000  -0.000016  -0.013000   0.001137  -0.007094
    29  C   -0.000007   0.000000   0.000823   0.000698  -0.003960  -0.040091
    30  H    0.000000   0.000000   0.000032   0.000204  -0.000103   0.000478
    31  H    0.000183  -0.000004  -0.001383   0.023287  -0.001383  -0.001784
    32  C   -0.000001   0.000000  -0.000022   0.000003  -0.000181   0.003714
    33  H    0.000000   0.000000  -0.000000   0.000000  -0.000008   0.000097
    34  H   -0.000000   0.000000   0.000000  -0.000000  -0.000009  -0.000104
    35  H    0.000000  -0.000000   0.000002  -0.000000   0.000040  -0.000085
    36  H    0.000001  -0.000000  -0.000028   0.000032   0.000060   0.000224
    37  H   -0.002405   0.004302  -0.001588   0.043800   0.000526   0.000002
    38  O   -0.000323  -0.002631   0.000491  -0.010640  -0.000012   0.000000
    39  H   -0.000377   0.004589   0.000307   0.000062   0.000005   0.000000
              13         14         15         16         17         18
     1  C   -0.039095  -0.042639  -0.043455  -0.000366  -0.000185   0.000094
     2  C    0.385647   0.392166   0.389492  -0.000002   0.000012  -0.000001
     3  C   -0.000876  -0.003452   0.000871  -0.004862   0.000214   0.000346
     4  O    0.000311   0.014483   0.000277  -0.009860   0.008952   0.000321
     5  C   -0.000116   0.000729   0.000013  -0.045415  -0.006222  -0.001386
     6  O    0.000000  -0.000006   0.000000   0.214055  -0.034389  -0.040042
     7  C    0.000030  -0.000025  -0.000014  -0.002464  -0.000349   0.002668
     8  O    0.000000   0.000000  -0.000000   0.000270   0.000007   0.000175
     9  C   -0.000040  -0.000026   0.000098  -0.000031   0.000015  -0.000076
    10  O    0.000000   0.000000  -0.000000   0.000001  -0.000000  -0.000000
    11  C   -0.001612   0.002237  -0.001237   0.000021  -0.000006  -0.000012
    12  C    0.000165   0.000187  -0.001999  -0.000000   0.000000   0.000000
    13  H    0.567742  -0.025145  -0.035846  -0.000000   0.000000   0.000000
    14  H   -0.025145   0.478545  -0.022932   0.000003   0.000001  -0.000000
    15  H   -0.035846  -0.022932   0.566979   0.000000  -0.000000  -0.000000
    16  C   -0.000000   0.000003   0.000000   4.850099   0.390619   0.381880
    17  H    0.000000   0.000001  -0.000000   0.390619   0.513323  -0.039122
    18  H    0.000000  -0.000000  -0.000000   0.381880  -0.039122   0.591642
    19  H    0.000000  -0.000000   0.000000   0.392346  -0.028262  -0.033711
    20  C    0.000000  -0.000000  -0.000000  -0.000118   0.000000   0.000022
    21  H   -0.000000  -0.000000   0.000000   0.000009   0.000001  -0.000002
    22  H   -0.000000   0.000000   0.000000   0.000002  -0.000000  -0.000001
    23  H   -0.000000   0.000000  -0.000000  -0.000000   0.000000   0.000001
    24  H   -0.000714   0.000051   0.002081   0.000000   0.000000  -0.000000
    25  H   -0.000026   0.000004   0.000043  -0.000000  -0.000000  -0.000000
    26  C    0.000022  -0.000005  -0.000225  -0.000000  -0.000000   0.000000
    27  H    0.000872   0.000024   0.000058  -0.000000   0.000000   0.000000
    28  C    0.000000   0.000000  -0.000000   0.000000  -0.000000   0.000000
    29  C    0.000042  -0.000000   0.000003  -0.000000  -0.000000   0.000000
    30  H    0.000000  -0.000000  -0.000000   0.000000  -0.000000  -0.000000
    31  H   -0.000000   0.000000  -0.000000   0.000000   0.000000  -0.000000
    32  C    0.000001  -0.000000  -0.000000   0.000000  -0.000000   0.000000
    33  H    0.000002   0.000000  -0.000000   0.000000  -0.000000  -0.000000
    34  H    0.000000   0.000000   0.000000  -0.000000  -0.000000   0.000000
    35  H   -0.000001   0.000000   0.000000   0.000000   0.000000  -0.000000
    36  H   -0.000000  -0.000000   0.000000   0.000000   0.000000  -0.000000
    37  H   -0.000000  -0.000000   0.000000   0.000000   0.000000  -0.000000
    38  O    0.000000   0.000000  -0.000000  -0.000000  -0.000000   0.000000
    39  H   -0.000000  -0.000000   0.000000   0.000000   0.000000  -0.000000
              19         20         21         22         23         24
     1  C    0.000006   0.000020  -0.000008  -0.000001  -0.000007  -0.000223
     2  C   -0.000000  -0.000000   0.000000   0.000000   0.000000  -0.002251
     3  C   -0.000089  -0.000101  -0.000170   0.000004   0.000050   0.000206
     4  O    0.000226   0.000001   0.000000  -0.000000  -0.000000  -0.000000
     5  C    0.004726  -0.005545   0.001653  -0.000098   0.000125  -0.000027
     6  O   -0.036321   0.000574   0.000726  -0.000016   0.000013  -0.000000
     7  C   -0.000017  -0.047608  -0.000771   0.004915  -0.006240   0.000062
     8  O   -0.000011   0.184663  -0.033525  -0.044686  -0.036959   0.000000
     9  C    0.000003  -0.005087   0.000937  -0.000165  -0.000434   0.001911
    10  O   -0.000000  -0.007300   0.000166   0.000366   0.008822   0.000318
    11  C   -0.000001  -0.000242   0.000080   0.000010  -0.000614  -0.055741
    12  C    0.000000   0.000002  -0.000001  -0.000000   0.000006   0.406678
    13  H    0.000000   0.000000  -0.000000  -0.000000  -0.000000  -0.000714
    14  H   -0.000000  -0.000000  -0.000000   0.000000   0.000000   0.000051
    15  H    0.000000  -0.000000   0.000000   0.000000  -0.000000   0.002081
    16  C    0.392346  -0.000118   0.000009   0.000002  -0.000000   0.000000
    17  H   -0.028262   0.000000   0.000001  -0.000000   0.000000   0.000000
    18  H   -0.033711   0.000022  -0.000002  -0.000001   0.000001  -0.000000
    19  H    0.562147   0.000002  -0.000002  -0.000000  -0.000000  -0.000000
    20  C    0.000002   4.973010   0.375093   0.400181   0.398972   0.000000
    21  H   -0.000002   0.375093   0.570791  -0.030273  -0.036413   0.000000
    22  H   -0.000000   0.400181  -0.030273   0.596234  -0.033152   0.000000
    23  H   -0.000000   0.398972  -0.036413  -0.033152   0.512145  -0.000000
    24  H   -0.000000   0.000000   0.000000   0.000000  -0.000000   0.574218
    25  H   -0.000000  -0.000002   0.000000  -0.000000   0.000025  -0.023754
    26  C    0.000000   0.000000  -0.000000   0.000000  -0.000000  -0.047268
    27  H   -0.000000   0.000000  -0.000000  -0.000000   0.000000  -0.002789
    28  C   -0.000000  -0.000000   0.000000   0.000000   0.000001   0.000085
    29  C    0.000000  -0.000000   0.000000  -0.000000  -0.000000   0.001391
    30  H    0.000000   0.000000  -0.000000  -0.000000  -0.000000   0.000048
    31  H    0.000000   0.000001  -0.000000  -0.000000  -0.000006   0.000069
    32  C    0.000000  -0.000000   0.000000   0.000000  -0.000000  -0.000107
    33  H    0.000000  -0.000000  -0.000000  -0.000000  -0.000000  -0.000012
    34  H    0.000000  -0.000000   0.000000   0.000000  -0.000000   0.000011
    35  H   -0.000000   0.000000  -0.000000  -0.000000   0.000000  -0.000002
    36  H   -0.000000   0.000000  -0.000000  -0.000000   0.000000  -0.000009
    37  H   -0.000000  -0.006182   0.000554   0.000392  -0.007862  -0.000000
    38  O    0.000000  -0.037307   0.002683  -0.014980  -0.001257   0.000000
    39  H   -0.000000  -0.008061   0.001010  -0.005272  -0.005642  -0.000000
              25         26         27         28         29         30
     1  C    0.002083  -0.001304  -0.000098  -0.000007   0.000189   0.000000
     2  C    0.000091  -0.000571  -0.000759  -0.000001   0.000019  -0.000000
     3  C   -0.000001   0.000066  -0.000017  -0.000001   0.000009   0.000000
     4  O    0.000000   0.000001   0.000000  -0.000000   0.000000   0.000000
     5  C   -0.000047  -0.000028  -0.000000   0.000003  -0.000005  -0.000000
     6  O    0.000000  -0.000000   0.000000  -0.000000  -0.000000   0.000000
     7  C    0.000599  -0.000034   0.000005  -0.000078  -0.000007   0.000000
     8  O   -0.000003   0.000001  -0.000000  -0.000000   0.000000   0.000000
     9  C   -0.003420  -0.003996   0.000149  -0.000016   0.000823   0.000032
    10  O    0.011518  -0.000203  -0.000023  -0.013000   0.000698   0.000204
    11  C   -0.041026  -0.065991   0.000514   0.001137  -0.003960  -0.000103
    12  C    0.400292   0.335089  -0.041286  -0.007094  -0.040091   0.000478
    13  H   -0.000026   0.000022   0.000872   0.000000   0.000042   0.000000
    14  H    0.000004  -0.000005   0.000024   0.000000  -0.000000  -0.000000
    15  H    0.000043  -0.000225   0.000058  -0.000000   0.000003  -0.000000
    16  C   -0.000000  -0.000000  -0.000000   0.000000  -0.000000   0.000000
    17  H   -0.000000  -0.000000   0.000000  -0.000000  -0.000000  -0.000000
    18  H   -0.000000   0.000000   0.000000   0.000000   0.000000  -0.000000
    19  H   -0.000000   0.000000  -0.000000  -0.000000   0.000000   0.000000
    20  C   -0.000002   0.000000   0.000000  -0.000000  -0.000000   0.000000
    21  H    0.000000  -0.000000  -0.000000   0.000000   0.000000  -0.000000
    22  H   -0.000000   0.000000  -0.000000   0.000000  -0.000000  -0.000000
    23  H    0.000025  -0.000000   0.000000   0.000001  -0.000000  -0.000000
    24  H   -0.023754  -0.047268  -0.002789   0.000085   0.001391   0.000048
    25  H    0.473130  -0.037763   0.002738   0.000041  -0.000794  -0.000209
    26  C   -0.037763   5.010665   0.390929  -0.041719   0.711233  -0.003241
    27  H    0.002738   0.390929   0.542958   0.003766  -0.043805  -0.000143
    28  C    0.000041  -0.041719   0.003766   5.189602   0.338684   0.373968
    29  C   -0.000794   0.711233  -0.043805   0.338684   4.849406  -0.043889
    30  H   -0.000209  -0.003241  -0.000143   0.373968  -0.043889   0.599074
    31  H   -0.000957  -0.001644  -0.000016   0.376429  -0.029159  -0.017426
    32  C    0.000075  -0.046682  -0.007003  -0.068612   0.353901   0.000299
    33  H    0.000007  -0.000415   0.003596   0.003908  -0.041379  -0.000134
    34  H    0.000001  -0.001348   0.000146   0.000422  -0.045075   0.002163
    35  H   -0.000002  -0.000778   0.000213  -0.001602  -0.040815  -0.000301
    36  H    0.000047   0.001409  -0.000116   0.392042  -0.045847  -0.038207
    37  H   -0.000042  -0.000001  -0.000000   0.000028  -0.000000  -0.000000
    38  O    0.000002  -0.000000  -0.000000  -0.000002   0.000000   0.000000
    39  H   -0.000000  -0.000000   0.000000  -0.000000   0.000000   0.000000
              31         32         33         34         35         36
     1  C   -0.000010   0.000001   0.000001   0.000000   0.000001   0.000000
     2  C   -0.000001   0.000001  -0.000002  -0.000000   0.000000   0.000000
     3  C    0.000001  -0.000000   0.000000   0.000000  -0.000000  -0.000000
     4  O   -0.000000   0.000000   0.000000   0.000000  -0.000000  -0.000000
     5  C   -0.000005   0.000000  -0.000000  -0.000000  -0.000000  -0.000000
     6  O    0.000000  -0.000000   0.000000  -0.000000   0.000000   0.000000
     7  C    0.000183  -0.000001   0.000000  -0.000000   0.000000   0.000001
     8  O   -0.000004   0.000000   0.000000   0.000000  -0.000000  -0.000000
     9  C   -0.001383  -0.000022  -0.000000   0.000000   0.000002  -0.000028
    10  O    0.023287   0.000003   0.000000  -0.000000  -0.000000   0.000032
    11  C   -0.001383  -0.000181  -0.000008  -0.000009   0.000040   0.000060
    12  C   -0.001784   0.003714   0.000097  -0.000104  -0.000085   0.000224
    13  H   -0.000000   0.000001   0.000002   0.000000  -0.000001  -0.000000
    14  H    0.000000  -0.000000   0.000000   0.000000   0.000000  -0.000000
    15  H   -0.000000  -0.000000  -0.000000   0.000000   0.000000   0.000000
    16  C    0.000000   0.000000   0.000000  -0.000000   0.000000   0.000000
    17  H    0.000000  -0.000000  -0.000000  -0.000000   0.000000   0.000000
    18  H   -0.000000   0.000000  -0.000000   0.000000  -0.000000  -0.000000
    19  H    0.000000   0.000000   0.000000   0.000000  -0.000000  -0.000000
    20  C    0.000001  -0.000000  -0.000000  -0.000000   0.000000   0.000000
    21  H   -0.000000   0.000000  -0.000000   0.000000  -0.000000  -0.000000
    22  H   -0.000000   0.000000  -0.000000   0.000000  -0.000000  -0.000000
    23  H   -0.000006  -0.000000  -0.000000  -0.000000   0.000000   0.000000
    24  H    0.000069  -0.000107  -0.000012   0.000011  -0.000002  -0.000009
    25  H   -0.000957   0.000075   0.000007   0.000001  -0.000002   0.000047
    26  C   -0.001644  -0.046682  -0.000415  -0.001348  -0.000778   0.001409
    27  H   -0.000016  -0.007003   0.003596   0.000146   0.000213  -0.000116
    28  C    0.376429  -0.068612   0.003908   0.000422  -0.001602   0.392042
    29  C   -0.029159   0.353901  -0.041379  -0.045075  -0.040815  -0.045847
    30  H   -0.017426   0.000299  -0.000134   0.002163  -0.000301  -0.038207
    31  H    0.396657   0.002888  -0.000085  -0.000015  -0.000064  -0.020793
    32  C    0.002888   5.106122   0.389798   0.384928   0.384006  -0.003931
    33  H   -0.000085   0.389798   0.547623  -0.027705  -0.025861   0.000108
    34  H   -0.000015   0.384928  -0.027705   0.588211  -0.039647  -0.000763
    35  H   -0.000064   0.384006  -0.025861  -0.039647   0.570106   0.003141
    36  H   -0.020793  -0.003931   0.000108  -0.000763   0.003141   0.571856
    37  H    0.000058   0.000000  -0.000000  -0.000000  -0.000000  -0.000000
    38  O    0.000003  -0.000000   0.000000   0.000000   0.000000   0.000000
    39  H    0.000000   0.000000   0.000000   0.000000  -0.000000  -0.000000
              37         38         39
     1  C   -0.000010   0.000000  -0.000000
     2  C    0.000000  -0.000000  -0.000000
     3  C   -0.000002   0.000000  -0.000000
     4  O    0.000000  -0.000000   0.000000
     5  C    0.000100  -0.000023  -0.000003
     6  O   -0.000000   0.000000  -0.000000
     7  C   -0.002405  -0.000323  -0.000377
     8  O    0.004302  -0.002631   0.004589
     9  C   -0.001588   0.000491   0.000307
    10  O    0.043800  -0.010640   0.000062
    11  C    0.000526  -0.000012   0.000005
    12  C    0.000002   0.000000   0.000000
    13  H   -0.000000   0.000000  -0.000000
    14  H   -0.000000   0.000000  -0.000000
    15  H    0.000000  -0.000000   0.000000
    16  C    0.000000  -0.000000   0.000000
    17  H    0.000000  -0.000000   0.000000
    18  H   -0.000000   0.000000  -0.000000
    19  H   -0.000000   0.000000  -0.000000
    20  C   -0.006182  -0.037307  -0.008061
    21  H    0.000554   0.002683   0.001010
    22  H    0.000392  -0.014980  -0.005272
    23  H   -0.007862  -0.001257  -0.005642
    24  H   -0.000000   0.000000  -0.000000
    25  H   -0.000042   0.000002  -0.000000
    26  C   -0.000001  -0.000000  -0.000000
    27  H   -0.000000  -0.000000   0.000000
    28  C    0.000028  -0.000002  -0.000000
    29  C   -0.000000   0.000000   0.000000
    30  H   -0.000000   0.000000   0.000000
    31  H    0.000058   0.000003   0.000000
    32  C    0.000000  -0.000000   0.000000
    33  H   -0.000000   0.000000   0.000000
    34  H   -0.000000   0.000000   0.000000
    35  H   -0.000000   0.000000  -0.000000
    36  H   -0.000000   0.000000  -0.000000
    37  H    0.233681   0.246833  -0.021501
    38  O    0.246833   8.507357   0.273191
    39  H   -0.021501   0.273191   0.317171
          Atomic-Atomic Spin Densities.
               1          2          3          4          5          6
     1  C    0.528542  -0.010734   0.061661  -0.006695  -0.013224   0.000113
     2  C   -0.010734  -0.066668  -0.003656   0.000918  -0.000062   0.000000
     3  C    0.061661  -0.003656  -0.220075  -0.111649   0.062516  -0.001867
     4  O   -0.006695   0.000918  -0.111649   0.589985  -0.006043   0.000672
     5  C   -0.013224  -0.000062   0.062516  -0.006043   0.490523  -0.032320
     6  O    0.000113   0.000000  -0.001867   0.000672  -0.032320   0.010818
     7  C   -0.002741   0.000007  -0.002402   0.000334  -0.052684   0.005002
     8  O    0.000019  -0.000000  -0.000036   0.000000   0.001159  -0.000221
     9  C   -0.008944  -0.000040  -0.002403   0.000053  -0.011405   0.000026
    10  O    0.000617  -0.000000   0.000025  -0.000000   0.000482  -0.000000
    11  C   -0.074545   0.005385  -0.005119   0.000445  -0.002097  -0.000003
    12  C    0.000830   0.000135  -0.000129   0.000002   0.000025  -0.000000
    13  H   -0.009133   0.004909  -0.000315   0.000165  -0.000009   0.000000
    14  H   -0.001231   0.003943   0.001092  -0.002187  -0.000021   0.000000
    15  H   -0.006894   0.004481  -0.000067   0.000043  -0.000005   0.000000
    16  C   -0.000004   0.000000  -0.000473   0.000022  -0.008811   0.003758
    17  H   -0.000065  -0.000000  -0.000981  -0.000393  -0.001155   0.000210
    18  H    0.000003  -0.000000   0.000385  -0.000091   0.002287  -0.000577
    19  H    0.000000  -0.000000  -0.000034  -0.000029   0.000646   0.000231
    20  C    0.000024   0.000000  -0.000045  -0.000000   0.001482  -0.000050
    21  H   -0.000005   0.000000   0.000004   0.000000  -0.000213   0.000026
    22  H   -0.000000  -0.000000  -0.000000   0.000000  -0.000026   0.000002
    23  H    0.000012  -0.000000   0.000006  -0.000000   0.000196  -0.000003
    24  H    0.000212  -0.000329   0.000014  -0.000000   0.000002  -0.000000
    25  H    0.000373  -0.000014  -0.000005  -0.000000   0.000015   0.000000
    26  C    0.000436   0.000051  -0.000001  -0.000001   0.000015  -0.000000
    27  H   -0.000216   0.000026  -0.000009   0.000000  -0.000001   0.000000
    28  C   -0.000004   0.000000  -0.000000   0.000000  -0.000000   0.000000
    29  C    0.000003  -0.000002   0.000001  -0.000000   0.000001  -0.000000
    30  H    0.000000   0.000000   0.000000  -0.000000   0.000000  -0.000000
    31  H    0.000006   0.000000   0.000000  -0.000000  -0.000000  -0.000000
    32  C    0.000003  -0.000000   0.000000  -0.000000   0.000000  -0.000000
    33  H    0.000000   0.000000   0.000000  -0.000000   0.000000  -0.000000
    34  H    0.000000  -0.000000  -0.000000  -0.000000   0.000000  -0.000000
    35  H   -0.000000   0.000000  -0.000000   0.000000  -0.000000   0.000000
    36  H   -0.000000   0.000000  -0.000000   0.000000  -0.000000   0.000000
    37  H   -0.000000  -0.000000   0.000000   0.000000  -0.000013  -0.000000
    38  O    0.000000   0.000000  -0.000000  -0.000000   0.000001   0.000000
    39  H   -0.000000   0.000000   0.000000   0.000000  -0.000002  -0.000000
               7          8          9         10         11         12
     1  C   -0.002741   0.000019  -0.008944   0.000617  -0.074545   0.000830
     2  C    0.000007  -0.000000  -0.000040  -0.000000   0.005385   0.000135
     3  C   -0.002402  -0.000036  -0.002403   0.000025  -0.005119  -0.000129
     4  O    0.000334   0.000000   0.000053  -0.000000   0.000445   0.000002
     5  C   -0.052684   0.001159  -0.011405   0.000482  -0.002097   0.000025
     6  O    0.005002  -0.000221   0.000026  -0.000000  -0.000003  -0.000000
     7  C   -0.402623   0.021191   0.074935   0.000021   0.003334   0.000076
     8  O    0.021191  -0.000917  -0.004335   0.000297  -0.000099   0.000000
     9  C    0.074935  -0.004335   0.355735  -0.135500   0.085261  -0.005352
    10  O    0.000021   0.000297  -0.135500   0.368335  -0.001421  -0.000367
    11  C    0.003334  -0.000099   0.085261  -0.001421  -0.365386   0.014149
    12  C    0.000076   0.000000  -0.005352  -0.000367   0.014149   0.019952
    13  H    0.000008  -0.000000   0.000031  -0.000000   0.000893  -0.000053
    14  H    0.000003  -0.000000  -0.000005  -0.000000  -0.000137   0.000025
    15  H    0.000006  -0.000000   0.000019  -0.000001   0.000850  -0.000189
    16  C    0.001418  -0.000040  -0.000007  -0.000000   0.000012  -0.000000
    17  H    0.000068  -0.000001   0.000004  -0.000000   0.000005  -0.000000
    18  H   -0.000758   0.000049  -0.000006   0.000000  -0.000005   0.000000
    19  H    0.000001   0.000000  -0.000001   0.000000   0.000000   0.000000
    20  C    0.012689  -0.003734  -0.000771  -0.000121  -0.000096  -0.000001
    21  H   -0.001751   0.000520   0.000121  -0.000008   0.000015   0.000000
    22  H   -0.000252  -0.000079   0.000022  -0.000045   0.000001   0.000000
    23  H   -0.000706  -0.000076  -0.002900   0.000951  -0.000072  -0.000001
    24  H   -0.000011   0.000000  -0.000090   0.000012   0.001391  -0.001465
    25  H   -0.000094  -0.000000  -0.001649  -0.000151   0.001793  -0.000548
    26  C   -0.000062   0.000000  -0.000436   0.000211   0.004328  -0.006978
    27  H    0.000003  -0.000000   0.000070  -0.000003   0.000275  -0.000255
    28  C    0.000007  -0.000000   0.000404   0.000202  -0.000086   0.000050
    29  C   -0.000006   0.000000  -0.000387   0.000049  -0.000923   0.000362
    30  H   -0.000000   0.000000  -0.000016   0.000002   0.000006  -0.000023
    31  H   -0.000019   0.000001  -0.000727  -0.001206   0.000062   0.000012
    32  C   -0.000000   0.000000  -0.000014   0.000001   0.000027  -0.000002
    33  H    0.000000   0.000000  -0.000000   0.000000  -0.000002   0.000001
    34  H   -0.000000   0.000000  -0.000000   0.000000   0.000000  -0.000000
    35  H    0.000000  -0.000000   0.000003  -0.000000  -0.000004   0.000001
    36  H    0.000000  -0.000000   0.000026  -0.000029  -0.000003  -0.000001
    37  H    0.000191   0.000028  -0.000026  -0.003164  -0.000032  -0.000001
    38  O   -0.000015   0.000040   0.000073   0.000489   0.000001   0.000000
    39  H   -0.000059  -0.000118   0.000013   0.000008   0.000000   0.000000
              13         14         15         16         17         18
     1  C   -0.009133  -0.001231  -0.006894  -0.000004  -0.000065   0.000003
     2  C    0.004909   0.003943   0.004481   0.000000  -0.000000  -0.000000
     3  C   -0.000315   0.001092  -0.000067  -0.000473  -0.000981   0.000385
     4  O    0.000165  -0.002187   0.000043   0.000022  -0.000393  -0.000091
     5  C   -0.000009  -0.000021  -0.000005  -0.008811  -0.001155   0.002287
     6  O    0.000000   0.000000   0.000000   0.003758   0.000210  -0.000577
     7  C    0.000008   0.000003   0.000006   0.001418   0.000068  -0.000758
     8  O   -0.000000  -0.000000  -0.000000  -0.000040  -0.000001   0.000049
     9  C    0.000031  -0.000005   0.000019  -0.000007   0.000004  -0.000006
    10  O   -0.000000  -0.000000  -0.000001  -0.000000  -0.000000   0.000000
    11  C    0.000893  -0.000137   0.000850   0.000012   0.000005  -0.000005
    12  C   -0.000053   0.000025  -0.000189  -0.000000  -0.000000   0.000000
    13  H    0.027601  -0.001403  -0.004767  -0.000000   0.000001   0.000000
    14  H   -0.001403   0.001950   0.000273   0.000000   0.000000   0.000000
    15  H   -0.004767   0.000273   0.019258   0.000000  -0.000000   0.000000
    16  C   -0.000000   0.000000   0.000000   0.010524   0.001114  -0.001092
    17  H    0.000001   0.000000  -0.000000   0.001114   0.001047  -0.000604
    18  H    0.000000   0.000000   0.000000  -0.001092  -0.000604  -0.000226
    19  H    0.000000   0.000000  -0.000000  -0.000528  -0.000473   0.000916
    20  C    0.000000  -0.000000  -0.000000   0.000046   0.000001  -0.000011
    21  H   -0.000000   0.000000   0.000000  -0.000006  -0.000000   0.000001
    22  H   -0.000000   0.000000   0.000000  -0.000001  -0.000000   0.000000
    23  H    0.000000  -0.000000  -0.000000   0.000001   0.000000  -0.000000
    24  H    0.000141  -0.000014  -0.000308   0.000000   0.000000  -0.000000
    25  H    0.000013  -0.000001  -0.000026   0.000000   0.000000  -0.000000
    26  C   -0.000271   0.000004   0.000092  -0.000000  -0.000000   0.000000
    27  H    0.000199  -0.000002  -0.000038   0.000000   0.000000  -0.000000
    28  C    0.000000  -0.000000  -0.000000   0.000000   0.000000  -0.000000
    29  C   -0.000005  -0.000000   0.000002  -0.000000  -0.000000   0.000000
    30  H   -0.000000   0.000000   0.000000  -0.000000  -0.000000   0.000000
    31  H   -0.000000   0.000000   0.000000  -0.000000  -0.000000   0.000000
    32  C   -0.000001   0.000000   0.000000  -0.000000  -0.000000   0.000000
    33  H   -0.000000  -0.000000   0.000000  -0.000000  -0.000000   0.000000
    34  H   -0.000000   0.000000   0.000000  -0.000000  -0.000000   0.000000
    35  H    0.000000  -0.000000  -0.000000   0.000000   0.000000  -0.000000
    36  H    0.000000  -0.000000  -0.000000   0.000000   0.000000  -0.000000
    37  H   -0.000000   0.000000   0.000000  -0.000000  -0.000000   0.000000
    38  O    0.000000  -0.000000  -0.000000   0.000000   0.000000  -0.000000
    39  H   -0.000000   0.000000   0.000000  -0.000000  -0.000000   0.000000
              19         20         21         22         23         24
     1  C    0.000000   0.000024  -0.000005  -0.000000   0.000012   0.000212
     2  C   -0.000000   0.000000   0.000000  -0.000000  -0.000000  -0.000329
     3  C   -0.000034  -0.000045   0.000004  -0.000000   0.000006   0.000014
     4  O   -0.000029  -0.000000   0.000000   0.000000  -0.000000  -0.000000
     5  C    0.000646   0.001482  -0.000213  -0.000026   0.000196   0.000002
     6  O    0.000231  -0.000050   0.000026   0.000002  -0.000003  -0.000000
     7  C    0.000001   0.012689  -0.001751  -0.000252  -0.000706  -0.000011
     8  O    0.000000  -0.003734   0.000520  -0.000079  -0.000076   0.000000
     9  C   -0.000001  -0.000771   0.000121   0.000022  -0.002900  -0.000090
    10  O    0.000000  -0.000121  -0.000008  -0.000045   0.000951   0.000012
    11  C    0.000000  -0.000096   0.000015   0.000001  -0.000072   0.001391
    12  C    0.000000  -0.000001   0.000000   0.000000  -0.000001  -0.001465
    13  H    0.000000   0.000000  -0.000000  -0.000000   0.000000   0.000141
    14  H    0.000000  -0.000000   0.000000   0.000000  -0.000000  -0.000014
    15  H   -0.000000  -0.000000   0.000000   0.000000  -0.000000  -0.000308
    16  C   -0.000528   0.000046  -0.000006  -0.000001   0.000001   0.000000
    17  H   -0.000473   0.000001  -0.000000  -0.000000   0.000000   0.000000
    18  H    0.000916  -0.000011   0.000001   0.000000  -0.000000  -0.000000
    19  H   -0.000182  -0.000000   0.000000   0.000000  -0.000000  -0.000000
    20  C   -0.000000  -0.021493   0.001732   0.001717   0.000986   0.000000
    21  H    0.000000   0.001732   0.000095  -0.000435  -0.000249  -0.000000
    22  H    0.000000   0.001717  -0.000435  -0.000731  -0.000720  -0.000000
    23  H   -0.000000   0.000986  -0.000249  -0.000720   0.002814   0.000000
    24  H   -0.000000   0.000000  -0.000000  -0.000000   0.000000  -0.004166
    25  H   -0.000000  -0.000000  -0.000000  -0.000000   0.000002   0.000209
    26  C    0.000000  -0.000000   0.000000   0.000000  -0.000000   0.001138
    27  H   -0.000000   0.000000  -0.000000  -0.000000   0.000000   0.000124
    28  C   -0.000000  -0.000000  -0.000000  -0.000000   0.000000   0.000024
    29  C    0.000000   0.000000   0.000000   0.000000  -0.000000  -0.000269
    30  H    0.000000  -0.000000   0.000000   0.000000  -0.000000  -0.000001
    31  H    0.000000   0.000000   0.000000   0.000000  -0.000001  -0.000018
    32  C    0.000000  -0.000000   0.000000   0.000000  -0.000000   0.000003
    33  H    0.000000   0.000000  -0.000000   0.000000  -0.000000  -0.000000
    34  H    0.000000  -0.000000   0.000000   0.000000  -0.000000   0.000000
    35  H   -0.000000   0.000000  -0.000000  -0.000000   0.000000  -0.000000
    36  H   -0.000000   0.000000  -0.000000  -0.000000   0.000000  -0.000000
    37  H    0.000000   0.000155  -0.000004   0.000009  -0.000045  -0.000000
    38  O   -0.000000  -0.000188   0.000011   0.000110  -0.000067  -0.000000
    39  H    0.000000   0.000201  -0.000020  -0.000167  -0.000052  -0.000000
              25         26         27         28         29         30
     1  C    0.000373   0.000436  -0.000216  -0.000004   0.000003   0.000000
     2  C   -0.000014   0.000051   0.000026   0.000000  -0.000002   0.000000
     3  C   -0.000005  -0.000001  -0.000009  -0.000000   0.000001   0.000000
     4  O   -0.000000  -0.000001   0.000000   0.000000  -0.000000  -0.000000
     5  C    0.000015   0.000015  -0.000001  -0.000000   0.000001   0.000000
     6  O    0.000000  -0.000000   0.000000   0.000000  -0.000000  -0.000000
     7  C   -0.000094  -0.000062   0.000003   0.000007  -0.000006  -0.000000
     8  O   -0.000000   0.000000  -0.000000  -0.000000   0.000000   0.000000
     9  C   -0.001649  -0.000436   0.000070   0.000404  -0.000387  -0.000016
    10  O   -0.000151   0.000211  -0.000003   0.000202   0.000049   0.000002
    11  C    0.001793   0.004328   0.000275  -0.000086  -0.000923   0.000006
    12  C   -0.000548  -0.006978  -0.000255   0.000050   0.000362  -0.000023
    13  H    0.000013  -0.000271   0.000199   0.000000  -0.000005  -0.000000
    14  H   -0.000001   0.000004  -0.000002  -0.000000  -0.000000   0.000000
    15  H   -0.000026   0.000092  -0.000038  -0.000000   0.000002   0.000000
[...]
    13  H(1)               0.00631      28.22152      10.07014       9.41369
    14  H(1)               0.00105       4.68297       1.67100       1.56207
    15  H(1)               0.00467      20.86171       7.44398       6.95872
    16  C(13)              0.00820       9.21810       3.28925       3.07483
    17  H(1)               0.00004       0.16462       0.05874       0.05491
    18  H(1)              -0.00031      -1.39461      -0.49763      -0.46519
    19  H(1)              -0.00006      -0.24647      -0.08795      -0.08222
    20  C(13)             -0.01033     -11.61524      -4.14461      -3.87443
    21  H(1)               0.00023       1.03585       0.36962       0.34552
    22  H(1)              -0.00001      -0.03990      -0.01424      -0.01331
    23  H(1)               0.00030       1.32279       0.47200       0.44123
    24  H(1)              -0.00084      -3.75064      -1.33832      -1.25108
    25  H(1)              -0.00062      -2.77638      -0.99068      -0.92610
    26  C(13)              0.00458       5.14417       1.83557       1.71591
    27  H(1)              -0.00121      -5.40317      -1.92799      -1.80230
    28  C(13)              0.00196       2.20622       0.78723       0.73591
    29  C(13)             -0.01121     -12.59805      -4.49530      -4.20226
    30  H(1)              -0.00104      -4.66069      -1.66305      -1.55464
    31  H(1)              -0.00014      -0.61126      -0.21811      -0.20389
    32  C(13)              0.00232       2.60928       0.93105       0.87036
    33  H(1)              -0.00011      -0.48735      -0.17390      -0.16256
    34  H(1)              -0.00085      -3.79785      -1.35517      -1.26683
    35  H(1)              -0.00092      -4.11093      -1.46688      -1.37126
    36  H(1)              -0.00057      -2.54312      -0.90745      -0.84829
    37  H(1)               0.00001       0.02503       0.00893       0.00835
    38  O(17)             -0.00010       0.05933       0.02117       0.01979
    39  H(1)               0.00000       0.00652       0.00233       0.00218
 --------------------------------------------------------
       Center         ----  Spin Dipole Couplings  ----
                      3XX-RR        3YY-RR        3ZZ-RR
 --------------------------------------------------------
     1   Atom       -0.097918     -0.143025      0.240943
     2   Atom        0.005301     -0.004981     -0.000320
     3   Atom        0.008687      0.038131     -0.046818
     4   Atom       -0.535401     -0.810536      1.345936
     5   Atom       -0.105961     -0.144785      0.250746
     6   Atom       -0.030466     -0.006896      0.037362
     7   Atom        0.052433      0.098609     -0.151041
     8   Atom        0.004582      0.015713     -0.020295
     9   Atom       -0.075131     -0.099409      0.174540
    10   Atom       -0.354879     -0.601130      0.956009
    11   Atom        0.051397      0.071408     -0.122805
    12   Atom        0.005756     -0.000641     -0.005115
    13   Atom        0.003790     -0.000003     -0.003787
    14   Atom        0.002065      0.001618     -0.003683
    15   Atom        0.002854     -0.000973     -0.001881
    16   Atom       -0.001846     -0.002420      0.004267
    17   Atom        0.000399     -0.002579      0.002179
    18   Atom       -0.000969     -0.002613      0.003582
    19   Atom        0.002253     -0.001773     -0.000481
    20   Atom        0.004577     -0.001305     -0.003272
    21   Atom        0.001017      0.001000     -0.002018
    22   Atom        0.001075     -0.000213     -0.000863
    23   Atom        0.003795     -0.000319     -0.003475
    24   Atom        0.000479      0.000150     -0.000629
    25   Atom        0.003636     -0.001563     -0.002073
    26   Atom        0.020757     -0.020377     -0.000380
    27   Atom        0.001133      0.001437     -0.002571
    28   Atom        0.002148     -0.000362     -0.001786
    29   Atom       -0.015047      0.023527     -0.008480
    30   Atom        0.001791     -0.001000     -0.000791
    31   Atom        0.007391     -0.003238     -0.004153
    32   Atom        0.000958     -0.000857     -0.000100
    33   Atom        0.000811     -0.000487     -0.000324
    34   Atom        0.000446     -0.000028     -0.000419
    35   Atom        0.000565     -0.000134     -0.000431
    36   Atom        0.001251     -0.001171     -0.000080
    37   Atom       -0.000264      0.001468     -0.001204
    38   Atom       -0.000135      0.000704     -0.000569
    39   Atom       -0.000099      0.000556     -0.000457
 --------------------------------------------------------
                        XY            XZ            YZ
 --------------------------------------------------------
     1   Atom       -0.004665      0.130424     -0.001344
     2   Atom        0.000960     -0.002830      0.000063
     3   Atom        0.014572     -0.014334     -0.007268
     4   Atom       -0.015503      0.768591     -0.031721
     5   Atom        0.000426      0.125821     -0.000406
     6   Atom        0.010032      0.051625      0.026368
     7   Atom        0.002633     -0.086021      0.009487
     8   Atom       -0.021908     -0.013686     -0.008264
     9   Atom        0.009219      0.106055      0.007114
    10   Atom        0.006499      0.559268      0.075385
    11   Atom        0.003749     -0.059453     -0.008491
    12   Atom       -0.001263     -0.004552      0.000445
    13   Atom       -0.003341     -0.001381      0.000205
    14   Atom       -0.006038     -0.003612      0.002435
    15   Atom       -0.002465     -0.002646      0.001794
    16   Atom        0.002050     -0.007567     -0.005692
    17   Atom       -0.000686     -0.007661      0.000411
    18   Atom       -0.000808     -0.003109      0.001703
    19   Atom       -0.000204     -0.002725      0.000090
    20   Atom        0.000387     -0.001180      0.005963
    21   Atom       -0.000826     -0.000665     -0.000832
    22   Atom       -0.000498     -0.000082     -0.000034
    23   Atom       -0.003813      0.003118     -0.000260
    24   Atom        0.000300     -0.001018      0.000314
    25   Atom       -0.002910     -0.003626      0.000909
    26   Atom       -0.003045     -0.038937     -0.000154
    27   Atom       -0.001090     -0.000947     -0.001882
    28   Atom        0.001170      0.000648      0.000281
    29   Atom        0.002110      0.036709     -0.001041
    30   Atom        0.000790      0.000079      0.000303
    31   Atom        0.003008      0.001410      0.000478
    32   Atom        0.000366      0.000772      0.000345
    33   Atom        0.000310      0.000589      0.000322
    34   Atom        0.000345     -0.000080      0.000036
    35   Atom        0.000198      0.000354      0.000289
    36   Atom        0.001142      0.001319      0.000454
    37   Atom       -0.001712     -0.000376      0.000533
    38   Atom       -0.000867     -0.000184      0.000233
    39   Atom       -0.000675     -0.000306      0.000387
 --------------------------------------------------------


 ---------------------------------------------------------------------------------
              Anisotropic Spin Dipole Couplings in Principal Axis System
 ---------------------------------------------------------------------------------

       Atom             a.u.   MegaHertz   Gauss  10(-4) cm-1        Axes

              Baa    -0.1467   -19.682    -7.023    -6.565  0.6392  0.7391 -0.2125
     1 C(13)  Bbb    -0.1387   -18.609    -6.640    -6.207  0.6983 -0.6736 -0.2423
              Bcc     0.2853    38.291    13.663    12.772  0.3222 -0.0065  0.9466
 
              Baa    -0.0051    -0.684    -0.244    -0.228 -0.1132  0.9903 -0.0802
     2 C(13)  Bbb    -0.0014    -0.194    -0.069    -0.065  0.3699  0.1169  0.9217
              Bcc     0.0065     0.878     0.313     0.293  0.9221  0.0747 -0.3796
 
              Baa    -0.0505    -6.771    -2.416    -2.258  0.2254  0.0428  0.9733
     3 C(13)  Bbb     0.0047     0.629     0.224     0.210  0.8853 -0.4262 -0.1862
              Bcc     0.0458     6.142     2.192     2.049  0.4069  0.9036 -0.1339
 
              Baa    -0.8143    58.921    21.024    19.654  0.6012  0.7730 -0.2026
     4 O(17)  Bbb    -0.8062    58.338    20.817    19.460  0.7251 -0.6343 -0.2683
              Bcc     1.6205  -117.259   -41.841   -39.113  0.3359 -0.0144  0.9418
 
              Baa    -0.1461   -19.604    -6.995    -6.539  0.8834 -0.3755 -0.2805
     5 C(13)  Bbb    -0.1446   -19.400    -6.922    -6.471  0.3581  0.9268 -0.1130
              Bcc     0.2907    39.004    13.918    13.010  0.3024 -0.0006  0.9532
 
              Baa    -0.0586     4.242     1.514     1.415  0.8683  0.0810 -0.4893
     6 O(17)  Bbb    -0.0162     1.171     0.418     0.391 -0.2265  0.9425 -0.2458
              Bcc     0.0748    -5.413    -1.931    -1.805  0.4413  0.3242  0.8368
 
              Baa    -0.1829   -24.540    -8.757    -8.186  0.3435 -0.0348  0.9385
     7 C(13)  Bbb     0.0839    11.256     4.017     3.755  0.9384  0.0522 -0.3415
              Bcc     0.0990    13.284     4.740     4.431 -0.0371  0.9980  0.0506
 
              Baa    -0.0328     2.371     0.846     0.791  0.5000  0.3602  0.7876
     8 O(17)  Bbb    -0.0001     0.005     0.002     0.002 -0.6002 -0.5114  0.6149
              Bcc     0.0328    -2.375    -0.848    -0.792 -0.6243  0.7802  0.0395
 
              Baa    -0.1164   -15.620    -5.574    -5.210  0.8835 -0.3481 -0.3135
     9 C(13)  Bbb    -0.0974   -13.072    -4.665    -4.360  0.3166  0.9369 -0.1480
              Bcc     0.2138    28.692    10.238     9.571  0.3453  0.0315  0.9380
 
              Baa    -0.6120    44.282    15.801    14.771  0.3292  0.9302 -0.1622
    10 O(17)  Bbb    -0.5532    40.031    14.284    13.353  0.8789 -0.3647 -0.3075
              Bcc     1.1652   -84.313   -30.085   -28.124  0.3452  0.0413  0.9376
 
              Baa    -0.1414   -18.974    -6.770    -6.329  0.2939  0.0329  0.9553
    11 C(13)  Bbb     0.0645     8.661     3.090     2.889  0.7321 -0.6503 -0.2028
              Bcc     0.0769    10.313     3.680     3.440  0.6146  0.7589 -0.2153
 
              Baa    -0.0068    -0.908    -0.324    -0.303  0.3418  0.0022  0.9398
    12 C(13)  Bbb    -0.0009    -0.115    -0.041    -0.038  0.1495  0.9871 -0.0567
              Bcc     0.0076     1.023     0.365     0.341  0.9278 -0.1599 -0.3370
 
              Baa    -0.0041    -2.179    -0.778    -0.727  0.2277  0.1380  0.9639
    13 H(1)   Bbb    -0.0018    -0.974    -0.348    -0.325  0.4550  0.8601 -0.2306
              Bcc     0.0059     3.153     1.125     1.052  0.8609 -0.4911 -0.1330
 
              Baa    -0.0055    -2.933    -1.046    -0.978  0.5283  0.1632  0.8332
    14 H(1)   Bbb    -0.0038    -2.032    -0.725    -0.678  0.4868  0.7457 -0.4548
              Bcc     0.0093     4.965     1.772     1.656  0.6956 -0.6459 -0.3145
 
              Baa    -0.0034    -1.810    -0.646    -0.604  0.1908 -0.4520  0.8713
    15 H(1)   Bbb    -0.0020    -1.091    -0.389    -0.364  0.5497  0.7846  0.2867
              Bcc     0.0054     2.900     1.035     0.967  0.8133 -0.4243 -0.3982
 
              Baa    -0.0076    -1.025    -0.366    -0.342  0.6638  0.4166  0.6211
    16 C(13)  Bbb    -0.0042    -0.560    -0.200    -0.187 -0.5641  0.8242  0.0501
              Bcc     0.0118     1.585     0.565     0.529 -0.4910 -0.3836  0.7821
 
              Baa    -0.0064    -3.435    -1.226    -1.146  0.7474  0.0624  0.6615
    17 H(1)   Bbb    -0.0026    -1.395    -0.498    -0.465 -0.0032  0.9959 -0.0904
              Bcc     0.0091     4.830     1.723     1.611 -0.6644  0.0654  0.7445
 
              Baa    -0.0031    -1.627    -0.581    -0.543  0.0144  0.9701 -0.2424
    18 H(1)   Bbb    -0.0025    -1.356    -0.484    -0.452  0.8980  0.0940  0.4298
              Bcc     0.0056     2.983     1.065     0.995 -0.4397  0.2239  0.8698
 
              Baa    -0.0022    -1.155    -0.412    -0.385  0.5259  0.0804  0.8467
    19 H(1)   Bbb    -0.0018    -0.949    -0.339    -0.317 -0.0094  0.9960 -0.0887
              Bcc     0.0039     2.104     0.751     0.702  0.8505 -0.0387 -0.5246
 
              Baa    -0.0084    -1.132    -0.404    -0.378  0.0882 -0.6419  0.7617
    20 C(13)  Bbb     0.0036     0.478     0.171     0.159  0.3834  0.7276  0.5688
              Bcc     0.0049     0.654     0.233     0.218  0.9194 -0.2418 -0.3102
 
              Baa    -0.0024    -1.306    -0.466    -0.436  0.2453  0.2825  0.9274
    21 H(1)   Bbb     0.0006     0.325     0.116     0.108  0.6767  0.6351 -0.3724
              Bcc     0.0018     0.981     0.350     0.327 -0.6942  0.7189 -0.0354
 
              Baa    -0.0009    -0.465    -0.166    -0.155  0.0679  0.1028  0.9924
    22 H(1)   Bbb    -0.0004    -0.201    -0.072    -0.067  0.3165  0.9411 -0.1192
              Bcc     0.0012     0.666     0.238     0.222  0.9462 -0.3221 -0.0314
 
              Baa    -0.0050    -2.658    -0.948    -0.887 -0.4345 -0.3082  0.8463
    23 H(1)   Bbb    -0.0019    -0.997    -0.356    -0.333  0.3069  0.8327  0.4608
              Bcc     0.0069     3.655     1.304     1.219  0.8467 -0.4600  0.2673
 
              Baa    -0.0014    -0.722    -0.258    -0.241  0.5010 -0.2717  0.8217
    24 H(1)   Bbb     0.0003     0.138     0.049     0.046  0.0410  0.9558  0.2911
              Bcc     0.0011     0.584     0.208     0.195  0.8645  0.1121 -0.4900
 
              Baa    -0.0040    -2.121    -0.757    -0.708  0.5010  0.2982  0.8124
    25 H(1)   Bbb    -0.0025    -1.359    -0.485    -0.453  0.1666  0.8880 -0.4286
              Bcc     0.0065     3.480     1.242     1.161  0.8492 -0.3501 -0.3953
 
              Baa    -0.0305    -4.099    -1.462    -1.367  0.6006  0.1917  0.7763
    26 C(13)  Bbb    -0.0201    -2.693    -0.961    -0.898 -0.0908  0.9809 -0.1719
              Bcc     0.0506     6.792     2.423     2.265  0.7944 -0.0328 -0.6065
 
              Baa    -0.0037    -1.955    -0.698    -0.652  0.2619  0.3828  0.8859
    27 H(1)   Bbb     0.0011     0.586     0.209     0.196  0.8276  0.3832 -0.4102
              Bcc     0.0026     1.369     0.488     0.457 -0.4965  0.8406 -0.2164
 
              Baa    -0.0019    -0.255    -0.091    -0.085 -0.1359 -0.0775  0.9877
    28 C(13)  Bbb    -0.0008    -0.110    -0.039    -0.037 -0.3705  0.9286  0.0219
              Bcc     0.0027     0.365     0.130     0.122  0.9188  0.3630  0.1549
 
              Baa    -0.0487    -6.534    -2.331    -2.179  0.7378 -0.0313 -0.6743
    29 C(13)  Bbb     0.0234     3.133     1.118     1.045 -0.2162  0.9354 -0.2799
              Bcc     0.0253     3.400     1.213     1.134  0.6395  0.3523  0.6833
 
              Baa    -0.0013    -0.718    -0.256    -0.239 -0.2080  0.8702 -0.4467
    30 H(1)   Bbb    -0.0007    -0.354    -0.126    -0.118 -0.1638  0.4193  0.8930
              Bcc     0.0020     1.071     0.382     0.357  0.9643  0.2589  0.0554
 
              Baa    -0.0044    -2.327    -0.830    -0.776 -0.0334 -0.3143  0.9487
    31 H(1)   Bbb    -0.0040    -2.134    -0.761    -0.712 -0.2779  0.9148  0.2933
              Bcc     0.0084     4.461     1.592     1.488  0.9600  0.2539  0.1178
 
              Baa    -0.0010    -0.133    -0.048    -0.044 -0.0493  0.9452 -0.3226
    32 C(13)  Bbb    -0.0005    -0.063    -0.023    -0.021 -0.5092  0.2541  0.8223
              Bcc     0.0015     0.197     0.070     0.066  0.8592  0.2049  0.4688
 
              Baa    -0.0008    -0.401    -0.143    -0.134  0.1230  0.7049 -0.6985
    33 H(1)   Bbb    -0.0004    -0.220    -0.079    -0.073 -0.4538  0.6659  0.5921
              Bcc     0.0012     0.622     0.222     0.207  0.8826  0.2442  0.4018
 
              Baa    -0.0004    -0.236    -0.084    -0.079  0.1747 -0.2287  0.9577
    34 H(1)   Bbb    -0.0002    -0.101    -0.036    -0.034 -0.4298  0.8574  0.2831
              Bcc     0.0006     0.336     0.120     0.112  0.8859  0.4611 -0.0515
 
              Baa    -0.0006    -0.345    -0.123    -0.115 -0.1891 -0.4264  0.8845
    35 H(1)   Bbb    -0.0001    -0.064    -0.023    -0.022 -0.4130  0.8518  0.3224
              Bcc     0.0008     0.409     0.146     0.136  0.8909  0.3043  0.3372
 
              Baa    -0.0016    -0.869    -0.310    -0.290 -0.3944  0.9165  0.0672
    36 H(1)   Bbb    -0.0008    -0.447    -0.160    -0.149 -0.4187 -0.2444  0.8746
              Bcc     0.0025     1.316     0.470     0.439  0.8180  0.3168  0.4801
 
              Baa    -0.0014    -0.724    -0.258    -0.241  0.6703  0.2763  0.6887
    37 H(1)   Bbb    -0.0013    -0.681    -0.243    -0.227 -0.5315 -0.4688  0.7055
              Bcc     0.0026     1.404     0.501     0.468 -0.5178  0.8390  0.1674
 
              Baa    -0.0007     0.050     0.018     0.017  0.8115  0.4395  0.3852
    38 O(17)  Bbb    -0.0006     0.044     0.016     0.015 -0.2530 -0.3300  0.9094
              Bcc     0.0013    -0.094    -0.033    -0.031 -0.5268  0.8354  0.1566
 
              Baa    -0.0006    -0.338    -0.121    -0.113  0.4990  0.0011  0.8666
    39 H(1)   Bbb    -0.0005    -0.266    -0.095    -0.089  0.6969  0.5939 -0.4020
              Bcc     0.0011     0.603     0.215     0.201 -0.5151  0.8046  0.2955
 

 ---------------------------------------------------------------------------------

 Unable to Open any file for archive entry.
 1\1\GINC-P08R01N35\FOpt\UHF\6-31G(d)\C14H20O5(1-,2)\JL3566\26-Oct-2021
 \1\\# HF/6-31G* Opt=(Z-matrix,MaxCycles=100) Geom=PrintInputOrient\\<q
 mtool> simtype="Geometry optimization" </qmtool> Q1H-ACC-O5-120a\\-1,2
 \C,0,-0.2269999981,-1.5310000181,-0.6560000181\C,0,0.2840000093,-2.911
 9999409,-0.9819999933\C,0,-1.6100000143,-1.4620000124,-0.1850000024\O,
 0,-2.3350000381,-2.4830000401,-0.0659999996\C,0,-2.1180000305,-0.12999
 99952,0.1280000061\O,0,-3.4419999123,0.0240000002,0.5090000033\C,0,-1.
 3279999495,0.9879999757,0.0089999996\O,0,-1.8309999704,2.2200000286,0.
 3880000114\C,0,0.0309999995,0.9350000024,-0.4970000088\O,0,0.722000002
 9,2.0050001144,-0.6690000296\C,0,0.5389999747,-0.3939999938,-0.7929999
 828\C,0,1.9720000029,-0.4300000072,-1.2539999485\H,0,1.0260000229,-3.2
 60999918,-0.2540000081\H,0,-0.5630000234,-3.6010000706,-0.9589999914\H
 ,0,0.7549999952,-2.9479999542,-1.9700000286\C,0,-3.7509999275,-0.63499
 99905,1.7410000563\H,0,-3.5380001068,-1.7020000219,1.6699999571\H,0,-3
 .1830000877,-0.1840000004,2.5659999847\H,0,-4.8179998398,-0.4679999948
 ,1.9090000391\C,0,-2.132999897,3.0239999294,-0.75\H,0,-2.9059998989,2.
 5460000038,-1.3650000095\H,0,-2.5150001049,3.9719998837,-0.3610000014\
 H,0,-1.2300000191,3.2000000477,-1.3400000334\H,0,2.1019999981,-1.17499
 99523,-2.0529999733\H,0,2.2119998932,0.5500000119,-1.6720000505\C,0,2.
 888999939,-0.7829999924,-0.1150000021\H,0,2.8800001144,-1.8339999914,0
 .1790000051\C,0,3.7630000114,1.5349999666,0.3269999921\C,0,3.671000003
 8,0.0529999994,0.5820000172\H,0,4.6760001183,1.7840000391,-0.232999995
 4\H,0,2.8849999905,1.9040000439,-0.2070000023\C,0,4.5430002213,-0.4609
 999955,1.6979999542\H,0,4.4499998093,-1.5460000038,1.8140000105\H,0,5.
 5989999771,-0.2240000069,1.5119999647\H,0,4.2769999504,0.0109999999,2.
 6530001163\H,0,3.8210000992,2.0710000992,1.2819999456\H,10,rAH,9,120.,
 11,180.,0\X,37,1.,10,90.,9,0.,0\O,37,0.9527,38,90.,10,180.,0\H,39,0.95
 27,37,104.52,38,dih,0\\rAH=3.30723571\dih=48.06327911\\Version=ES64L-G
 16RevC.01\State=2-A\HF=-916.0508096\S2=0.913784\S2-1=0.\S2A=0.76948\RM
 SD=7.177e-09\RMSF=8.142e-03\Dipole=0.9534045,-0.5120664,0.7888395\Quad
 rupole=-3.288481,-14.7031081,17.9915891,-7.4187292,-1.8237055,2.628222
 3\PG=C01 [X(C14H20O5)]\\@
 The archive entry for this job was punched.


 "PERFECTION IS NOT AN ACCIDENT"
         --  EAGLE ELECTRIC MANUFACTURING CO.,INC. NY
 Job cpu time:       0 days  1 hours 34 minutes  6.7 seconds.
 Elapsed time:       0 days  0 hours 23 minutes 42.1 seconds.
 File lengths (MBytes):  RWF=    176 Int=      0 D2E=      0 Chk=     16 Scr=      8
 Normal termination of Gaussian 16 at Tue Oct 26 23:27:24 2021.
