 Entering Gaussian System, Link 0=g16
 Initial command:
 /gpfs/loomis/apps/avx/software/Gaussian/16-C.01_AVX/g16/l1.exe "/home/jl3566/scratch60/g16/Gau-32264.inp" -scrdir="/home/jl3566/scratch60/g16/"
 Entering Link 1 = /gpfs/loomis/apps/avx/software/Gaussian/16-C.01_AVX/g16/l1.exe PID=     32265.
  
 Copyright (c) 1988-2019, Gaussian, Inc.  All Rights Reserved.
  
 This is part of the Gaussian(R) 16 program.  It is based on
 the Gaussian(R) 09 system (copyright 2009, Gaussian, Inc.),
 the Gaussian(R) 03 system (copyright 2003, Gaussian, Inc.),
 the Gaussian(R) 98 system (copyright 1998, Gaussian, Inc.),
 the Gaussian(R) 94 system (copyright 1995, Gaussian, Inc.),
 the Gaussian 92(TM) system (copyright 1992, Gaussian, Inc.),
 the Gaussian 90(TM) system (copyright 1990, Gaussian, Inc.),
 the Gaussian 88(TM) system (copyright 1988, Gaussian, Inc.),
 the Gaussian 86(TM) system (copyright 1986, Carnegie Mellon
 University), and the Gaussian 82(TM) system (copyright 1983,
 Carnegie Mellon University). Gaussian is a federally registered
 trademark of Gaussian, Inc.
  
 This software contains proprietary and confidential information,
 including trade secrets, belonging to Gaussian, Inc.
  
 This software is provided under written license and may be
 used, copied, transmitted, or stored only in accord with that
 written license.
  
 The following legend is applicable only to US Government
 contracts under FAR:
  
                    RESTRICTED RIGHTS LEGEND
  
 Use, reproduction and disclosure by the US Government is
 subject to restrictions as set forth in subparagraphs (a)
 and (c) of the Commercial Computer Software - Restricted
 Rights clause in FAR 52.227-19.
  
 Gaussian, Inc.
 340 Quinnipiac St., Bldg. 40, Wallingford CT 06492
  
  
 ---------------------------------------------------------------
 Warning -- This program may not be used in any manner that
 competes with the business of Gaussian, Inc. or will provide
 assistance to any competitor of Gaussian, Inc.  The licensee
 of this program is prohibited from giving any competitor of
 Gaussian, Inc. access to this program.  By using this program,
 the user acknowledges that Gaussian, Inc. is engaged in the
 business of creating and licensing software in the field of
 computational chemistry and represents and warrants to the
 licensee that it is not a competitor of Gaussian, Inc. and that
 it will not use this program in any manner prohibited above.
 ---------------------------------------------------------------
  

 Cite this work as:
 Gaussian 16, Revision C.01,
 M. J. Frisch, G. W. Trucks, H. B. Schlegel, G. E. Scuseria, 
 M. A. Robb, J. R. Cheeseman, G. Scalmani, V. Barone, 
 G. A. Petersson, H. Nakatsuji, X. Li, M. Caricato, A. V. Marenich, 
 J. Bloino, B. G. Janesko, R. Gomperts, B. Mennucci, H. P. Hratchian, 
 J. V. Ortiz, A. F. Izmaylov, J. L. Sonnenberg, D. Williams-Young, 
 F. Ding, F. Lipparini, F. Egidi, J. Goings, B. Peng, A. Petrone, 
 T. Henderson, D. Ranasinghe, V. G. Zakrzewski, J. Gao, N. Rega, 
 G. Zheng, W. Liang, M. Hada, M. Ehara, K. Toyota, R. Fukuda, 
 J. Hasegawa, M. Ishida, T. Nakajima, Y. Honda, O. Kitao, H. Nakai, 
 T. Vreven, K. Throssell, J. A. Montgomery, Jr., J. E. Peralta, 
 F. Ogliaro, M. J. Bearpark, J. J. Heyd, E. N. Brothers, K. N. Kudin, 
 V. N. Staroverov, T. A. Keith, R. Kobayashi, J. Normand, 
 K. Raghavachari, A. P. Rendell, J. C. Burant, S. S. Iyengar, 
 J. Tomasi, M. Cossi, J. M. Millam, M. Klene, C. Adamo, R. Cammi, 
 J. W. Ochterski, R. L. Martin, K. Morokuma, O. Farkas, 
 J. B. Foresman, and D. J. Fox, Gaussian, Inc., Wallingford CT, 2019.
 
 ******************************************
 Gaussian 16:  ES64L-G16RevC.01  3-Jul-2019
                26-Oct-2021 
 ******************************************
 %chk=Q1H-ACC-O5.chk
 %nproc=4
 Will use up to    4 processors via shared memory.
 %mem=4GB
 --------------------------------------------------------------
 # HF/6-31G* Opt=(Z-matrix,MaxCycles=100) Geom=PrintInputOrient
 --------------------------------------------------------------
 1/6=100,10=7,18=40,38=1/1,3;
 2/9=2000,12=2,17=6,18=5,29=3,40=1/2;
 3/5=1,6=6,7=1,11=9,25=1,30=1,71=1/1,2,3;
 4//1;
 5/5=2,38=5/2;
 6/7=2,8=2,9=2,10=2,28=1/1;
 7/29=1/1,2,3,16;
 1/6=100,10=7,18=40/3(2);
 2/9=2000,29=3/2;
 99//99;
 2/9=2000,29=3/2;
 3/5=1,6=6,7=1,11=9,25=1,30=1,71=1/1,2,3;
 4/5=5,16=3,69=1/1;
 5/5=2,38=5/2;
 7//1,2,3,16;
 1/6=100,18=40/3(-5);
 2/9=2000,29=3/2;
 6/7=2,8=2,9=2,10=2,19=2,28=1/1;
 99/9=1/99;
 -------------------------------------------------------------
 <qmtool> simtype="Geometry optimization" </qmtool> Q1H-ACC-O5
 -------------------------------------------------------------
 Symbolic Z-matrix:
 Charge = -1 Multiplicity = 2
 C1                   -0.227    -1.531    -0.656 
 C2                    0.284    -2.912    -0.982 
 C3                   -1.61     -1.462    -0.185 
 O4                   -2.335    -2.483    -0.066 
 C5                   -2.118    -0.13      0.128 
 O6                   -3.442     0.024     0.509 
 C7                   -1.328     0.988     0.009 
 O8                   -1.831     2.22      0.388 
 C9                    0.031     0.935    -0.497 
 O10                   0.722     2.005    -0.669 
 C11                   0.539    -0.394    -0.793 
 C12                   1.972    -0.43     -1.254 
 H13                   1.026    -3.261    -0.254 
 H14                  -0.563    -3.601    -0.959 
 H15                   0.755    -2.948    -1.97 
 C16                  -3.751    -0.635     1.741 
 H17                  -3.538    -1.702     1.67 
 H18                  -3.183    -0.184     2.566 
 H19                  -4.818    -0.468     1.909 
 C20                  -2.133     3.024    -0.75 
 H21                  -2.906     2.546    -1.365 
 H22                  -2.515     3.972    -0.361 
 H23                  -1.23      3.2      -1.34 
 H24                   2.102    -1.175    -2.053 
 H25                   2.212     0.55     -1.672 
 C26                   2.889    -0.783    -0.115 
 H27                   2.88     -1.834     0.179 
 C28                   3.763     1.535     0.327 
 C29                   3.671     0.053     0.582 
 H30                   4.676     1.784    -0.233 
 H31                   2.885     1.904    -0.207 
 C32                   4.543    -0.461     1.698 
 H33                   4.45     -1.546     1.814 
 H34                   5.599    -0.224     1.512 
 H35                   4.277     0.011     2.653 
 H36                   3.821     2.071     1.282 
 H1w                  O10  rAH      C11   149.65   C9    180.     0
 x                    H1w   1.       O10   90.      C11   0.       0
 Ow                   H1w   0.9527   x     90.      O10   180.     0
 H2w                  Ow    0.9527   H1w   104.52   x    dih      0
       Variables:
  rAH                   2.                       
  dih                   0.                       
 

 GradGradGradGradGradGradGradGradGradGradGradGradGradGradGradGradGradGrad
 Berny optimization.
 Initialization pass.
                       ----------------------------
                       !    Initial Parameters    !
                       ! (Angstroms and Degrees)  !
 ----------------------                            ----------------------
 !      Name          Value   Derivative information (Atomic Units)     !
 ------------------------------------------------------------------------
 !       rAH         2.0      estimate D2E/DX2                          !
 !       dih         0.0      estimate D2E/DX2                          !
 ------------------------------------------------------------------------
 Trust Radius=3.00D-01 FncErr=1.00D-07 GrdErr=1.00D-07 EigMax=2.50D+02 EigMin=1.00D-04
 Number of steps in this run=    100 maximum allowed number of steps=    100.
 GradGradGradGradGradGradGradGradGradGradGradGradGradGradGradGradGradGrad

 ---------------------------------------------------------------------------------------------------
                            Z-MATRIX (ANGSTROMS AND DEGREES)
   CD    Cent   Atom    N1       Length/X        N2       Alpha/Y        N3        Beta/Z          J
 ---------------------------------------------------------------------------------------------------
      1      1  C        0  -0.227000         -1.531000         -0.656000
      2      2  C        0   0.284000         -2.912000         -0.982000
      3      3  C        0  -1.610000         -1.462000         -0.185000
      4      4  O        0  -2.335000         -2.483000         -0.066000
      5      5  C        0  -2.118000         -0.130000          0.128000
      6      6  O        0  -3.442000          0.024000          0.509000
      7      7  C        0  -1.328000          0.988000          0.009000
      8      8  O        0  -1.831000          2.220000          0.388000
      9      9  C        0   0.031000          0.935000         -0.497000
     10     10  O        0   0.722000          2.005000         -0.669000
     11     11  C        0   0.539000         -0.394000         -0.793000
     12     12  C        0   1.972000         -0.430000         -1.254000
     13     13  H        0   1.026000         -3.261000         -0.254000
     14     14  H        0  -0.563000         -3.601000         -0.959000
     15     15  H        0   0.755000         -2.948000         -1.970000
     16     16  C        0  -3.751000         -0.635000          1.741000
     17     17  H        0  -3.538000         -1.702000          1.670000
     18     18  H        0  -3.183000         -0.184000          2.566000
     19     19  H        0  -4.818000         -0.468000          1.909000
     20     20  C        0  -2.133000          3.024000         -0.750000
     21     21  H        0  -2.906000          2.546000         -1.365000
     22     22  H        0  -2.515000          3.972000         -0.361000
     23     23  H        0  -1.230000          3.200000         -1.340000
     24     24  H        0   2.102000         -1.175000         -2.053000
     25     25  H        0   2.212000          0.550000         -1.672000
     26     26  C        0   2.889000         -0.783000         -0.115000
     27     27  H        0   2.880000         -1.834000          0.179000
     28     28  C        0   3.763000          1.535000          0.327000
     29     29  C        0   3.671000          0.053000          0.582000
     30     30  H        0   4.676000          1.784000         -0.233000
     31     31  H        0   2.885000          1.904000         -0.207000
     32     32  C        0   4.543000         -0.461000          1.698000
     33     33  H        0   4.450000         -1.546000          1.814000
     34     34  H        0   5.599000         -0.224000          1.512000
     35     35  H        0   4.277000          0.011000          2.653000
     36     36  H        0   3.821000          2.071000          1.282000
     37     37  H       10   2.000000(    36)     11  149.650(    74)      9  180.000(   111)      0
     38         X       37   1.000000(    37)     10   90.000(    75)     11    0.000(   112)      0
     39     38  O       37   0.952700(    38)     38   90.000(    76)     10  180.000(   113)      0
     40     39  H       39   0.952700(    39)     37  104.520(    77)     38    0.000(   114)      0
 ---------------------------------------------------------------------------------------------------
                         Z-Matrix orientation:                         
 ---------------------------------------------------------------------
 Center     Atomic      Atomic             Coordinates (Angstroms)
 Number     Number       Type             X           Y           Z
 ---------------------------------------------------------------------
      1          6           0       -0.227000   -1.531000   -0.656000
      2          6           0        0.284000   -2.912000   -0.982000
      3          6           0       -1.610000   -1.462000   -0.185000
      4          8           0       -2.335000   -2.483000   -0.066000
      5          6           0       -2.118000   -0.130000    0.128000
      6          8           0       -3.442000    0.024000    0.509000
      7          6           0       -1.328000    0.988000    0.009000
      8          8           0       -1.831000    2.220000    0.388000
      9          6           0        0.031000    0.935000   -0.497000
     10          8           0        0.722000    2.005000   -0.669000
     11          6           0        0.539000   -0.394000   -0.793000
     12          6           0        1.972000   -0.430000   -1.254000
     13          1           0        1.026000   -3.261000   -0.254000
     14          1           0       -0.563000   -3.601000   -0.959000
     15          1           0        0.755000   -2.948000   -1.970000
     16          6           0       -3.751000   -0.635000    1.741000
     17          1           0       -3.538000   -1.702000    1.670000
     18          1           0       -3.183000   -0.184000    2.566000
     19          1           0       -4.818000   -0.468000    1.909000
     20          6           0       -2.133000    3.024000   -0.750000
     21          1           0       -2.906000    2.546000   -1.365000
     22          1           0       -2.515000    3.972000   -0.361000
     23          1           0       -1.230000    3.200000   -1.340000
     24          1           0        2.102000   -1.175000   -2.053000
     25          1           0        2.212000    0.550000   -1.672000
     26          6           0        2.889000   -0.783000   -0.115000
     27          1           0        2.880000   -1.834000    0.179000
     28          6           0        3.763000    1.535000    0.327000
     29          6           0        3.671000    0.053000    0.582000
     30          1           0        4.676000    1.784000   -0.233000
     31          1           0        2.885000    1.904000   -0.207000
     32          6           0        4.543000   -0.461000    1.698000
     33          1           0        4.450000   -1.546000    1.814000
     34          1           0        5.599000   -0.224000    1.512000
     35          1           0        4.277000    0.011000    2.653000
     36          1           0        3.821000    2.071000    1.282000
     37          1           0        1.797189    3.670037   -0.936620
     38         -1           0        2.565000    3.121123   -1.267015
     39          8           0        2.309356    4.463177   -1.064101
     40          1           0        3.145894    4.155784   -1.400776
 ---------------------------------------------------------------------
                    Distance matrix (angstroms):
                    1          2          3          4          5
     1  C    0.000000
     2  C    1.508164   0.000000
     3  C    1.462632   2.514944   0.000000
     4  O    2.387063   2.807536   1.257866   0.000000
     5  C    2.480592   3.839431   1.459540   2.370935   0.000000
     6  O    3.756524   4.972550   2.458873   2.800201   1.386309
     7  C    2.828389   4.334815   2.473795   3.614902   1.374112
     8  O    4.211028   5.717303   3.732867   4.751667   2.381695
     9  C    2.484552   3.885697   2.921615   4.179287   2.478518
    10  O    3.661157   4.946383   4.206254   5.463607   3.641296
    11  C    1.377786   2.537926   2.475579   3.626614   2.824462
    12  C    2.530890   3.013910   3.877952   4.916951   4.327589
    13  H    2.173594   1.096517   3.192124   3.454989   4.453518
    14  H    2.118869   1.092089   2.504118   2.277577   3.955684
    15  H    2.167674   1.095117   3.314762   3.659172   4.538376
    16  C    4.355112   5.374075   2.996212   2.947102   2.350209
    17  H    4.049968   4.806754   2.686226   2.251858   2.620181
    18  H    4.575328   5.661305   3.416960   3.596099   2.661012
    19  H    5.365303   6.353064   3.957794   3.758476   3.252108
    20  C    4.938593   6.413408   4.551588   5.552991   3.273962
    21  H    4.929670   6.333447   4.374481   5.225350   3.164012
    22  H    5.966991   7.457177   5.511656   6.464244   4.150076
    23  H    4.884284   6.306893   4.817953   5.927950   3.745994
    24  H    2.739085   2.733008   4.165422   5.034481   4.863865
    25  H    3.363263   4.022279   4.568041   5.696800   4.738280
    26  C    3.249868   3.474242   4.550488   5.493867   5.055245
    27  H    3.231483   3.041253   4.520064   5.260936   5.280741
    28  C    5.127060   5.795924   6.173596   7.313301   6.115389
    29  C    4.385898   4.765406   5.547294   6.551583   5.809658
    30  H    5.933596   6.473259   7.074787   8.209099   7.067684
    31  H    4.656755   5.528081   5.615645   6.820121   5.411043
    32  C    5.425783   5.597221   6.512074   7.382890   6.851524
    33  H    5.289183   5.199916   6.381744   7.102717   6.927213
    34  H    6.352224   6.457136   7.508804   8.398900   7.840688
    35  H    5.797694   6.140131   6.699309   7.571759   6.876884
    36  H    5.754698   6.516621   6.643037   7.775111   6.438000
    37  H    5.588101   6.753889   6.205778   7.462763   5.558993
    38  X    5.459931   6.456219   6.293361   7.540466   5.869102
    39  O    6.521488   7.648663   7.158344   8.415202   6.489981
    40  H    6.653617   7.636713   7.460304   8.711790   6.957994
                    6          7          8          9         10
     6  O    0.000000
     7  C    2.376614   0.000000
     8  O    2.726239   1.383645   0.000000
     9  C    3.728765   1.451112   2.429299   0.000000
    10  O    4.759300   2.386729   2.771513   1.285288   0.000000
    11  C    4.209310   2.457400   3.720841   1.453245   2.409163
    12  C    5.711889   3.807347   4.917466   2.490734   2.798920
    13  H    5.597894   4.864616   6.214175   4.319200   5.291068
    14  H    4.856366   4.751965   6.107886   4.597997   5.758695
    15  H    5.709031   4.873133   6.241457   4.215637   5.121123
    16  C    1.430939   3.391885   3.697030   4.666591   5.725856
    17  H    2.082358   3.857346   4.465362   4.938362   6.112313
    18  H    2.083649   3.369400   3.514371   4.578638   5.523221
    19  H    2.023719   4.232025   4.296621   5.591963   6.591920
    20  C    3.506931   2.317197   1.425715   3.018414   3.032482
    21  H    3.187422   2.608702   2.082045   3.460450   3.733561
    22  H    4.147642   3.232665   2.024441   3.965348   3.800279
    23  H    4.289373   2.592749   2.075472   2.725985   2.385072
    24  H    6.223936   4.549210   5.740470   3.340999   3.732594
    25  H    6.082857   3.943248   4.835116   2.507112   2.311522
    26  C    6.412658   4.575468   5.616887   3.356428   3.574318
    27  H    6.597632   5.069502   6.218691   4.030030   4.484862
    28  C    7.363985   5.130167   5.636114   3.868695   3.234285
    29  C    7.113434   5.117866   5.916547   3.897661   3.751254
    30  H    8.339670   6.061369   6.551091   4.729326   3.984100
    31  H    6.639125   4.316837   4.763878   3.027933   2.214094
    32  C    8.087594   6.278612   7.037879   5.208165   5.126781
    33  H    8.151784   6.562352   7.461045   5.569887   5.716019
    34  H    9.099846   7.191056   7.901988   6.031748   5.788811
    35  H    8.011234   6.273858   6.878777   5.367010   5.258303
    36  H    7.585440   5.413467   5.724207   4.338138   3.662589
    37  H    6.544655   4.225438   4.125649   3.285288   2.000000
    38  X    6.987878   4.618861   4.782877   3.434125   2.236068
    39  O    7.433642   5.143808   4.927777   4.237988   2.952700
    40  H    8.007449   5.660217   5.631737   4.570867   3.322143
                   11         12         13         14         15
    11  C    0.000000
    12  C    1.505758   0.000000
    13  H    2.957597   3.147932   0.000000
    14  H    3.395116   4.070441   1.771312   0.000000
    15  H    2.820443   2.886879   1.765238   1.784840   0.000000
    16  C    4.988320   6.462567   5.804794   5.123524   6.278975
    17  H    4.939551   6.366150   5.192529   4.400962   5.764717
    18  H    5.017994   6.420821   5.927564   5.564703   6.612325
    19  H    6.000311   7.490668   6.828745   6.012166   7.228787
    20  C    4.338681   5.388428   7.051703   6.811696   6.744904
    21  H    4.564954   5.715224   7.100436   6.590910   6.629704
    22  H    5.345605   6.348876   8.053969   7.843356   7.821009
    23  H    4.042945   4.841188   6.929174   6.844242   6.491150
    24  H    2.154189   1.100148   2.957291   3.766237   2.228189
    25  H    2.112512   1.092119   4.235687   5.043788   3.801007
    26  C    2.476591   1.504267   3.103317   4.535390   3.561208
    27  H    2.915247   2.202083   2.379314   4.033805   3.220997
    28  C    3.920410   3.093294   5.552508   6.837146   5.866989
    29  C    3.449617   2.547702   4.321749   5.801134   4.901200
    30  H    4.708721   3.640859   6.226955   7.548008   6.386175
    31  H    3.335853   2.716125   5.489564   6.539055   5.584530
    32  C    4.716099   3.914755   4.900979   6.556713   5.829952
    33  H    4.839367   4.098605   4.352198   6.086273   5.471497
    34  H    5.562870   4.565996   5.766667   7.448504   6.558112
    35  H    5.100155   4.557648   5.452122   7.036952   6.521679
    36  H    4.599280   4.013116   6.213014   7.510867   6.720582
    37  H    4.256767   4.116016   7.007137   7.644539   6.778823
    38  X    4.084783   3.600318   6.642756   7.420660   6.372169
    39  O    5.176855   4.908468   7.871860   8.561100   7.626416
    40  H    5.278809   4.735925   7.798573   8.609226   7.516924
                   16         17         18         19         20
    16  C    0.000000
    17  H    1.090366   0.000000
    18  H    1.098476   1.798100   0.000000
    19  H    1.092978   1.793956   1.784805   0.000000
    20  C    4.712885   5.492313   4.731767   5.145247   0.000000
    21  H    4.525486   5.258912   4.793995   4.843451   1.097378
    22  H    5.212538   6.112754   5.126976   5.492750   1.093595
    23  H    5.527678   6.198110   5.524717   6.073217   1.092925
    24  H    6.995973   6.778500   7.088615   8.005229   6.104476
    25  H    6.972099   7.021607   6.899668   7.954922   5.084268
    26  C    6.896103   6.733284   6.664514   7.974562   6.333795
    27  H    6.917196   6.590238   6.721625   8.007375   7.042256
    28  C    7.947861   8.098544   7.497666   8.952558   6.175748
    29  C    7.543388   7.498897   7.139310   8.607874   6.654884
    30  H    8.986800   9.123782   8.571541   9.989780   6.940272
    31  H    7.367341   7.601401   6.990701   8.333069   5.170065
    32  C    8.295937   8.175783   7.779539   9.363380   7.918769
    33  H    8.251766   7.990821   7.789945   9.330966   8.413969
    34  H    9.361830   9.257117   8.845114  10.427417   8.686194
    35  H    8.105421   8.060700   7.463055   9.137943   7.857905
    36  H    8.054086   8.278947   7.469250   9.026183   6.362967
    37  H    7.515677   8.007340   7.205847   8.305518   3.987302
    38  X    7.940306   8.314757   7.658678   8.802134   4.727360
    39  O    8.401661   8.926157   8.058527   9.162698   4.680215
    40  H    8.966020   9.403071   8.638515   9.785582   5.437938
                   21         22         23         24         25
    21  H    0.000000
    22  H    1.787281   0.000000
    23  H    1.799254   1.790433   0.000000
    24  H    6.276882   7.118368   5.545378   0.000000
    25  H    5.502017   5.981081   4.356614   1.769996   0.000000
    26  C    6.799027   7.202344   5.859273   2.128116   2.158580
    27  H    7.419308   7.944008   6.673876   2.453852   3.091259
    28  C    6.954175   6.769461   5.520975   3.970821   2.715111
    29  C    7.298136   7.383387   6.133310   3.303478   2.730606
    30  H    7.703817   7.517593   6.173438   4.323605   3.108822
    31  H    5.940438   5.784491   4.460553   3.674377   2.105343
    32  C    8.597187   8.585240   7.480635   4.531918   4.220496
    33  H    8.997846   9.148233   8.045783   4.539211   4.642635
    34  H    9.396013   9.324781   8.154319   5.083565   4.712611
    35  H    8.611971   8.420510   7.512711   5.318238   4.822901
    36  H    7.244637   6.816021   5.801907   4.961220   3.691672
    37  H    4.854581   4.360906   3.089907   4.981325   3.232256
    38  X    5.502018   5.229842   3.796521   4.391903   2.626651
    39  O    5.564714   4.900001   3.768126   5.727998   3.961310
    40  H    6.262436   5.758527   4.479472   5.471049   3.734622
                   26         27         28         29         30
    26  C    0.000000
    27  H    1.091384   0.000000
    28  C    2.516419   3.485937   0.000000
    29  C    1.340235   2.085392   1.506590   0.000000
    30  H    3.129981   4.060207   1.099623   2.161160   0.000000
    31  H    2.688578   3.757880   1.091880   2.160213   1.795204
    32  C    2.475150   2.637813   2.544024   1.506664   2.964199
    33  H    2.596138   2.284966   3.489369   2.163669   3.915378
    34  H    3.209939   3.429570   2.805210   2.158428   2.815851
    35  H    3.196687   3.387670   2.827905   2.158250   3.410532
    36  H    3.311427   4.165467   1.096670   2.141220   1.763128
    37  H    4.657966   5.719398   3.165364   4.347451   3.512801
    38  X    4.083417   5.171405   2.547916   3.749063   2.704331
    39  O    5.362756   6.444019   3.552811   4.900346   3.670112
    40  H    5.109873   6.200315   3.199147   4.586936   3.054552
                   31         32         33         34         35
    31  H    0.000000
    32  C    3.459944   0.000000
    33  H    4.293736   1.095139   0.000000
    34  H    3.853458   1.098135   1.777383   0.000000
    35  H    3.701448   1.097982   1.777104   1.762042   0.000000
    36  H    1.766665   2.665589   3.709630   2.912252   2.516183
    37  H    2.198764   5.616597   6.466093   5.967665   5.694154
    38  X    1.645424   5.053257   5.901518   5.302634   5.288698
    39  O    2.759597   6.071729   6.998288   6.279147   6.124569
    40  H    2.561972   5.733151   6.674266   5.803835   5.906923
                   36         37         38         39         40
    36  H    0.000000
    37  H    3.402206   0.000000
    38  X    3.029484   1.000000   0.000000
    39  O    3.675836   0.952700   1.381172   0.000000
    40  H    3.464012   1.506783   1.194092   0.952700   0.000000
 Stoichiometry    C14H20O5(1-,2)
 Framework group  C1[X(C14H20O5)]
 Deg. of freedom   111
 Full point group                 C1      NOp   1
 Largest Abelian subgroup         C1      NOp   1
 Largest concise Abelian subgroup C1      NOp   1
                         Standard orientation:                         
 ---------------------------------------------------------------------
 Center     Atomic      Atomic             Coordinates (Angstroms)
 Number     Number       Type             X           Y           Z
 ---------------------------------------------------------------------
      1          6           0       -0.769116   -1.635630   -0.763605
      2          6           0       -0.569678   -3.061123   -1.213886
      3          6           0       -2.118512   -1.296575   -0.312536
      4          8           0       -3.058834   -2.132031   -0.306610
      5          6           0       -2.325548    0.081917    0.120075
      6          8           0       -3.594833    0.498132    0.490929
      7          6           0       -1.300111    0.996598    0.124767
      8          8           0       -1.527384    2.270994    0.613374
      9          6           0        0.030898    0.681712   -0.359988
     10          8           0        0.951233    1.577246   -0.414466
     11          6           0        0.237940   -0.695421   -0.775391
     12          6           0        1.643049   -1.014787   -1.212405
     13          1           0        0.045509   -3.634840   -0.510506
     14          1           0       -1.550265   -3.538185   -1.273206
     15          1           0       -0.080397   -3.113296   -2.192233
     16          6           0       -4.092436   -0.182590    1.647041
     17          1           0       -4.122460   -1.259027    1.475925
     18          1           0       -3.470382    0.050038    2.522017
     19          1           0       -5.100220    0.207087    1.811740
     20          6           0       -1.595672    3.222919   -0.445795
     21          1           0       -2.431637    2.991685   -1.118054
     22          1           0       -1.769468    4.193519    0.027153
     23          1           0       -0.653749    3.241575   -0.999796
     24          1           0        1.633326   -1.693819   -2.077938
     25          1           0        2.113729   -0.081335   -1.528398
     26          6           0        2.411545   -1.669704   -0.097365
     27          1           0        2.154647   -2.713314    0.092371
     28          6           0        3.766819    0.338033    0.584243
     29          6           0        3.333633   -1.100937    0.691614
     30          1           0        4.733731    0.422445    0.067400
     31          1           0        3.016106    0.944445    0.073465
     32          6           0        4.022984   -1.899584    1.767251
     33          1           0        3.683652   -2.940797    1.775066
     34          1           0        5.111706   -1.893465    1.623906
     35          1           0        3.832719   -1.468437    2.758955
     36          1           0        3.906389    0.757407    1.587901
     37          1           0        2.383293    2.970810   -0.499209
     38          8           0        3.065455    3.634634   -0.539577
     39          1           0        3.823905    3.176733   -0.889888
 ---------------------------------------------------------------------
 Rotational constants (GHZ):           0.4406858           0.2604945           0.1878704
 Standard basis: 6-31G(d) (6D, 7F)
 There are   325 symmetry adapted cartesian basis functions of A   symmetry.
 There are   325 symmetry adapted basis functions of A   symmetry.
   325 basis functions,   612 primitive gaussians,   325 cartesian basis functions
    73 alpha electrons       72 beta electrons
       nuclear repulsion energy      1500.8094424071 Hartrees.
 NAtoms=   39 NActive=   39 NUniq=   39 SFac= 1.00D+00 NAtFMM=   60 NAOKFM=F Big=F
 Integral buffers will be    131072 words long.
 Raffenetti 2 integral format.
 Two-electron integral symmetry is turned on.
 One-electron integrals computed using PRISM.
 NBasis=   325 RedAO= T EigKep=  3.08D-04  NBF=   325
 NBsUse=   325 1.00D-06 EigRej= -1.00D+00 NBFU=   325
 ExpMin= 1.61D-01 ExpMax= 5.48D+03 ExpMxC= 8.25D+02 IAcc=3 IRadAn=         5 AccDes= 0.00D+00
 Harris functional with IExCor=  205 and IRadAn=       5 diagonalized for initial guess.
 HarFok:  IExCor=  205 AccDes= 0.00D+00 IRadAn=         5 IDoV= 1 UseB2=F ITyADJ=14
 ICtDFT=  3500011 ScaDFX=  1.000000  1.000000  1.000000  1.000000
 FoFCou: FMM=F IPFlag=           0 FMFlag=      100000 FMFlg1=           0
         NFxFlg=           0 DoJE=T BraDBF=F KetDBF=T FulRan=T
         wScrn=  0.000000 ICntrl=       500 IOpCl=  0 I1Cent=   200000004 NGrid=           0
         NMat0=    1 NMatS0=      1 NMatT0=    0 NMatD0=    1 NMtDS0=    0 NMtDT0=    0
 Petite list used in FoFCou.
 Initial guess <Sx>= 0.0000 <Sy>= 0.0000 <Sz>= 0.5000 <S**2>= 0.7500 S= 0.5000
 Requested convergence on RMS density matrix=1.00D-08 within 128 cycles.
 Requested convergence on MAX density matrix=1.00D-06.
 Requested convergence on             energy=1.00D-06.
 No special actions if energy rises.
 Integral accuracy reduced to 1.0D-05 until final iterations.
 Initial convergence to 1.0D-05 achieved.  Increase integral accuracy.
 Restarting incremental Fock formation.
 SCF Done:  E(UHF) =  -916.059134929     A.U. after   43 cycles
            NFock= 43  Conv=0.36D-08     -V/T= 2.0020
 <Sx>= 0.0000 <Sy>= 0.0000 <Sz>= 0.5000 <S**2>= 0.9615 S= 0.6007
 <L.S>=  0.00000000000    
 Annihilation of the first spin contaminant:
 S**2 before annihilation     0.9615,   after     0.7850

 **********************************************************************

            Population analysis using the SCF Density.

 **********************************************************************

 Orbital symmetries:
 Alpha Orbitals:
       Occupied  (A) (A) (A) (A) (A) (A) (A) (A) (A) (A) (A) (A)
                 (A) (A) (A) (A) (A) (A) (A) (A) (A) (A) (A) (A)
                 (A) (A) (A) (A) (A) (A) (A) (A) (A) (A) (A) (A)
                 (A) (A) (A) (A) (A) (A) (A) (A) (A) (A) (A) (A)
                 (A) (A) (A) (A) (A) (A) (A) (A) (A) (A) (A) (A)
                 (A) (A) (A) (A) (A) (A) (A) (A) (A) (A) (A) (A)
                 (A)
       Virtual   (A) (A) (A) (A) (A) (A) (A) (A) (A) (A) (A) (A)
                 (A) (A) (A) (A) (A) (A) (A) (A) (A) (A) (A) (A)
                 (A) (A) (A) (A) (A) (A) (A) (A) (A) (A) (A) (A)
                 (A) (A) (A) (A) (A) (A) (A) (A) (A) (A) (A) (A)
                 (A) (A) (A) (A) (A) (A) (A) (A) (A) (A) (A) (A)
                 (A) (A) (A) (A) (A) (A) (A) (A) (A) (A) (A) (A)
                 (A) (A) (A) (A) (A) (A) (A) (A) (A) (A) (A) (A)
                 (A) (A) (A) (A) (A) (A) (A) (A) (A) (A) (A) (A)
                 (A) (A) (A) (A) (A) (A) (A) (A) (A) (A) (A) (A)
                 (A) (A) (A) (A) (A) (A) (A) (A) (A) (A) (A) (A)
                 (A) (A) (A) (A) (A) (A) (A) (A) (A) (A) (A) (A)
                 (A) (A) (A) (A) (A) (A) (A) (A) (A) (A) (A) (A)
                 (A) (A) (A) (A) (A) (A) (A) (A) (A) (A) (A) (A)
                 (A) (A) (A) (A) (A) (A) (A) (A) (A) (A) (A) (A)
                 (A) (A) (A) (A) (A) (A) (A) (A) (A) (A) (A) (A)
                 (A) (A) (A) (A) (A) (A) (A) (A) (A) (A) (A) (A)
                 (A) (A) (A) (A) (A) (A) (A) (A) (A) (A) (A) (A)
                 (A) (A) (A) (A) (A) (A) (A) (A) (A) (A) (A) (A)
                 (A) (A) (A) (A) (A) (A) (A) (A) (A) (A) (A) (A)
                 (A) (A) (A) (A) (A) (A) (A) (A) (A) (A) (A) (A)
                 (A) (A) (A) (A) (A) (A) (A) (A) (A) (A) (A) (A)
 Beta  Orbitals:
       Occupied  (A) (A) (A) (A) (A) (A) (A) (A) (A) (A) (A) (A)
                 (A) (A) (A) (A) (A) (A) (A) (A) (A) (A) (A) (A)
                 (A) (A) (A) (A) (A) (A) (A) (A) (A) (A) (A) (A)
                 (A) (A) (A) (A) (A) (A) (A) (A) (A) (A) (A) (A)
                 (A) (A) (A) (A) (A) (A) (A) (A) (A) (A) (A) (A)
                 (A) (A) (A) (A) (A) (A) (A) (A) (A) (A) (A) (A)
       Virtual   (A) (A) (A) (A) (A) (A) (A) (A) (A) (A) (A) (A)
                 (A) (A) (A) (A) (A) (A) (A) (A) (A) (A) (A) (A)
                 (A) (A) (A) (A) (A) (A) (A) (A) (A) (A) (A) (A)
                 (A) (A) (A) (A) (A) (A) (A) (A) (A) (A) (A) (A)
                 (A) (A) (A) (A) (A) (A) (A) (A) (A) (A) (A) (A)
                 (A) (A) (A) (A) (A) (A) (A) (A) (A) (A) (A) (A)
                 (A) (A) (A) (A) (A) (A) (A) (A) (A) (A) (A) (A)
                 (A) (A) (A) (A) (A) (A) (A) (A) (A) (A) (A) (A)
                 (A) (A) (A) (A) (A) (A) (A) (A) (A) (A) (A) (A)
                 (A) (A) (A) (A) (A) (A) (A) (A) (A) (A) (A) (A)
                 (A) (A) (A) (A) (A) (A) (A) (A) (A) (A) (A) (A)
                 (A) (A) (A) (A) (A) (A) (A) (A) (A) (A) (A) (A)
                 (A) (A) (A) (A) (A) (A) (A) (A) (A) (A) (A) (A)
                 (A) (A) (A) (A) (A) (A) (A) (A) (A) (A) (A) (A)
                 (A) (A) (A) (A) (A) (A) (A) (A) (A) (A) (A) (A)
                 (A) (A) (A) (A) (A) (A) (A) (A) (A) (A) (A) (A)
                 (A) (A) (A) (A) (A) (A) (A) (A) (A) (A) (A) (A)
                 (A) (A) (A) (A) (A) (A) (A) (A) (A) (A) (A) (A)
                 (A) (A) (A) (A) (A) (A) (A) (A) (A) (A) (A) (A)
                 (A) (A) (A) (A) (A) (A) (A) (A) (A) (A) (A) (A)
                 (A) (A) (A) (A) (A) (A) (A) (A) (A) (A) (A) (A)
                 (A)
 The electronic state is 2-A.
 Alpha  occ. eigenvalues --  -20.44723 -20.43486 -20.41744 -20.41719 -20.35559
 Alpha  occ. eigenvalues --  -11.16195 -11.15441 -11.15170 -11.14257 -11.14173
 Alpha  occ. eigenvalues --  -11.13518 -11.12520 -11.12021 -11.11003 -11.10796
 Alpha  occ. eigenvalues --  -11.10153 -11.10108 -11.10077 -11.09141  -1.26888
 Alpha  occ. eigenvalues --   -1.24442  -1.23008  -1.20490  -1.17034  -0.99992
 Alpha  occ. eigenvalues --   -0.97767  -0.91490  -0.88632  -0.83425  -0.82847
 Alpha  occ. eigenvalues --   -0.81410  -0.79392  -0.76141  -0.74527  -0.64783
 Alpha  occ. eigenvalues --   -0.64384  -0.59634  -0.57667  -0.57300  -0.54350
 Alpha  occ. eigenvalues --   -0.53138  -0.52080  -0.51453  -0.49778  -0.49143
 Alpha  occ. eigenvalues --   -0.48556  -0.48364  -0.47989  -0.46909  -0.46026
 Alpha  occ. eigenvalues --   -0.45614  -0.43928  -0.43220  -0.43092  -0.42843
 Alpha  occ. eigenvalues --   -0.41491  -0.40847  -0.40559  -0.39821  -0.39465
 Alpha  occ. eigenvalues --   -0.38256  -0.37801  -0.36743  -0.36048  -0.35083
 Alpha  occ. eigenvalues --   -0.33958  -0.31192  -0.28263  -0.27924  -0.25083
 Alpha  occ. eigenvalues --   -0.22004  -0.19305  -0.10927
 Alpha virt. eigenvalues --    0.27374   0.30225   0.32185   0.32908   0.34717
 Alpha virt. eigenvalues --    0.35389   0.37762   0.38642   0.39182   0.40234
 Alpha virt. eigenvalues --    0.41073   0.41747   0.42298   0.42810   0.43294
 Alpha virt. eigenvalues --    0.44178   0.44306   0.45391   0.45722   0.46265
 Alpha virt. eigenvalues --    0.46708   0.47398   0.50165   0.50749   0.51068
 Alpha virt. eigenvalues --    0.51917   0.53936   0.55935   0.57250   0.58225
 Alpha virt. eigenvalues --    0.59909   0.62637   0.64076   0.64672   0.67573
 Alpha virt. eigenvalues --    0.69166   0.72065   0.74245   0.75024   0.76144
 Alpha virt. eigenvalues --    0.80299   0.82349   0.82859   0.83917   0.86241
 Alpha virt. eigenvalues --    0.86762   0.88017   0.88185   0.88715   0.89656
 Alpha virt. eigenvalues --    0.90580   0.91072   0.91625   0.92196   0.94133
 Alpha virt. eigenvalues --    0.95623   0.95831   0.97271   0.98402   0.98917
 Alpha virt. eigenvalues --    1.02147   1.02850   1.05054   1.05778   1.06913
 Alpha virt. eigenvalues --    1.07492   1.08040   1.09612   1.09803   1.10920
 Alpha virt. eigenvalues --    1.11896   1.13051   1.13912   1.15403   1.16064
 Alpha virt. eigenvalues --    1.16547   1.18339   1.19023   1.22158   1.23126
 Alpha virt. eigenvalues --    1.23439   1.24121   1.24266   1.24761   1.25977
 Alpha virt. eigenvalues --    1.26528   1.26786   1.27427   1.27597   1.28582
 Alpha virt. eigenvalues --    1.28872   1.29860   1.30865   1.30986   1.31291
 Alpha virt. eigenvalues --    1.32324   1.33568   1.33844   1.34949   1.35329
 Alpha virt. eigenvalues --    1.36465   1.38415   1.38818   1.40882   1.41201
 Alpha virt. eigenvalues --    1.41902   1.42383   1.46440   1.47703   1.48986
 Alpha virt. eigenvalues --    1.50446   1.50933   1.53031   1.53489   1.56355
 Alpha virt. eigenvalues --    1.56602   1.57866   1.58838   1.59897   1.61490
 Alpha virt. eigenvalues --    1.62634   1.64382   1.66098   1.67253   1.70763
 Alpha virt. eigenvalues --    1.73091   1.74709   1.76976   1.78386   1.79013
 Alpha virt. eigenvalues --    1.80196   1.82260   1.83711   1.84306   1.86116
 Alpha virt. eigenvalues --    1.87066   1.88833   1.89679   1.92780   1.94010
 Alpha virt. eigenvalues --    1.97783   1.99325   2.03933   2.05008   2.08566
 Alpha virt. eigenvalues --    2.11246   2.13778   2.14316   2.16204   2.17052
 Alpha virt. eigenvalues --    2.17545   2.18311   2.19600   2.20240   2.21213
 Alpha virt. eigenvalues --    2.22459   2.24280   2.25938   2.27408   2.28003
 Alpha virt. eigenvalues --    2.29125   2.30854   2.31810   2.32990   2.34202
 Alpha virt. eigenvalues --    2.34935   2.36515   2.38326   2.39384   2.41575
 Alpha virt. eigenvalues --    2.41669   2.44834   2.46689   2.47366   2.49688
 Alpha virt. eigenvalues --    2.50216   2.52431   2.53737   2.54428   2.55536
 Alpha virt. eigenvalues --    2.56329   2.58531   2.60118   2.60888   2.62740
 Alpha virt. eigenvalues --    2.65216   2.66553   2.68278   2.68422   2.69774
 Alpha virt. eigenvalues --    2.71107   2.73195   2.73720   2.74145   2.78276
 Alpha virt. eigenvalues --    2.80615   2.81996   2.83194   2.83737   2.85039
 Alpha virt. eigenvalues --    2.86521   2.86866   2.87656   2.90143   2.93147
 Alpha virt. eigenvalues --    2.94307   2.94676   2.96863   3.00635   3.02355
 Alpha virt. eigenvalues --    3.04249   3.07128   3.09179   3.12188   3.12625
 Alpha virt. eigenvalues --    3.13095   3.16041   3.16910   3.22762   3.26396
 Alpha virt. eigenvalues --    3.30546   3.32037   3.37515   3.41510   3.46019
 Alpha virt. eigenvalues --    3.47203   3.51286   3.54790   3.55308   3.59353
 Alpha virt. eigenvalues --    3.62452   3.85968   3.93061   4.26068   4.38856
 Alpha virt. eigenvalues --    4.54250   4.64383   4.67848   4.73958   4.76751
 Alpha virt. eigenvalues --    4.78889   4.80705   4.81561   4.84146   4.91037
 Alpha virt. eigenvalues --    4.92865   4.98420   5.05590   5.12782   5.23133
 Alpha virt. eigenvalues --    5.37066   5.81894
  Beta  occ. eigenvalues --  -20.44700 -20.43484 -20.41723 -20.39704 -20.34345
  Beta  occ. eigenvalues --  -11.16652 -11.15401 -11.14370 -11.14308 -11.14174
  Beta  occ. eigenvalues --  -11.13536 -11.12502 -11.12178 -11.10887 -11.10235
  Beta  occ. eigenvalues --  -11.10114 -11.10059 -11.09974 -11.09704  -1.26466
  Beta  occ. eigenvalues --   -1.24102  -1.20489  -1.19040  -1.14353  -0.99613
  Beta  occ. eigenvalues --   -0.97095  -0.91232  -0.87904  -0.83182  -0.82483
  Beta  occ. eigenvalues --   -0.81513  -0.78939  -0.75073  -0.73819  -0.64293
  Beta  occ. eigenvalues --   -0.63619  -0.59634  -0.57550  -0.57276  -0.53963
  Beta  occ. eigenvalues --   -0.52821  -0.51803  -0.50726  -0.49572  -0.48907
  Beta  occ. eigenvalues --   -0.48643  -0.48254  -0.47722  -0.45876  -0.45203
  Beta  occ. eigenvalues --   -0.44748  -0.43295  -0.43130  -0.42537  -0.41433
  Beta  occ. eigenvalues --   -0.40786  -0.40032  -0.39517  -0.38362  -0.38109
  Beta  occ. eigenvalues --   -0.37234  -0.36084  -0.35741  -0.35103  -0.32897
  Beta  occ. eigenvalues --   -0.31389  -0.29949  -0.26509  -0.24237  -0.22097
  Beta  occ. eigenvalues --   -0.18602  -0.18153
  Beta virt. eigenvalues --    0.20616   0.29304   0.31877   0.33125   0.34794
  Beta virt. eigenvalues --    0.35356   0.37249   0.38179   0.38817   0.40017
  Beta virt. eigenvalues --    0.40732   0.41130   0.41948   0.42383   0.42934
  Beta virt. eigenvalues --    0.43241   0.44172   0.44384   0.45483   0.45928
  Beta virt. eigenvalues --    0.46529   0.46778   0.47781   0.50698   0.50993
  Beta virt. eigenvalues --    0.51220   0.52597   0.54205   0.56197   0.57709
  Beta virt. eigenvalues --    0.58692   0.60078   0.63240   0.64282   0.64989
  Beta virt. eigenvalues --    0.68273   0.69333   0.72167   0.74254   0.75409
  Beta virt. eigenvalues --    0.76753   0.80474   0.82603   0.83152   0.84475
  Beta virt. eigenvalues --    0.86279   0.86968   0.88254   0.88716   0.88950
  Beta virt. eigenvalues --    0.89844   0.90560   0.91329   0.91688   0.92324
  Beta virt. eigenvalues --    0.94353   0.95614   0.96003   0.97422   0.98425
  Beta virt. eigenvalues --    0.98689   1.02701   1.03163   1.05371   1.05942
  Beta virt. eigenvalues --    1.06941   1.07646   1.08393   1.09752   1.10111
  Beta virt. eigenvalues --    1.11709   1.12065   1.13201   1.14500   1.15925
  Beta virt. eigenvalues --    1.16058   1.17238   1.18197   1.19095   1.22354
  Beta virt. eigenvalues --    1.23434   1.23538   1.24181   1.24406   1.24824
  Beta virt. eigenvalues --    1.26111   1.26616   1.26834   1.27554   1.27761
  Beta virt. eigenvalues --    1.28644   1.29153   1.30039   1.30881   1.31091
  Beta virt. eigenvalues --    1.31411   1.32484   1.33672   1.34022   1.35197
  Beta virt. eigenvalues --    1.35671   1.36793   1.38464   1.39031   1.41001
  Beta virt. eigenvalues --    1.41378   1.42213   1.43181   1.47786   1.49443
  Beta virt. eigenvalues --    1.50693   1.51446   1.51707   1.53708   1.54866
  Beta virt. eigenvalues --    1.56953   1.57209   1.58332   1.59256   1.60608
  Beta virt. eigenvalues --    1.62015   1.63231   1.65058   1.66609   1.67825
  Beta virt. eigenvalues --    1.71075   1.73250   1.74705   1.77147   1.79324
  Beta virt. eigenvalues --    1.80178   1.80954   1.82572   1.83675   1.84495
  Beta virt. eigenvalues --    1.86151   1.87276   1.89311   1.89917   1.92909
  Beta virt. eigenvalues --    1.94231   1.98027   1.99539   2.04234   2.05376
  Beta virt. eigenvalues --    2.08846   2.11650   2.14050   2.14852   2.16324
  Beta virt. eigenvalues --    2.17077   2.18119   2.18800   2.20174   2.20505
  Beta virt. eigenvalues --    2.21471   2.23376   2.24752   2.26666   2.27440
  Beta virt. eigenvalues --    2.28444   2.30097   2.31152   2.32626   2.33338
  Beta virt. eigenvalues --    2.34889   2.35735   2.37261   2.38734   2.40106
  Beta virt. eigenvalues --    2.41514   2.42253   2.45297   2.47063   2.47495
  Beta virt. eigenvalues --    2.50284   2.50952   2.52735   2.53927   2.54910
  Beta virt. eigenvalues --    2.55929   2.56872   2.58848   2.60215   2.61054
  Beta virt. eigenvalues --    2.62919   2.65629   2.66998   2.68310   2.68648
  Beta virt. eigenvalues --    2.69912   2.71346   2.73318   2.74084   2.74688
  Beta virt. eigenvalues --    2.78483   2.80870   2.82050   2.83425   2.83868
  Beta virt. eigenvalues --    2.85067   2.86692   2.87002   2.87836   2.90258
  Beta virt. eigenvalues --    2.93395   2.94485   2.94800   2.97140   3.01328
  Beta virt. eigenvalues --    3.02447   3.04616   3.08287   3.09713   3.12440
  Beta virt. eigenvalues --    3.12900   3.13443   3.16382   3.17088   3.23026
  Beta virt. eigenvalues --    3.26721   3.30887   3.32375   3.37518   3.41909
  Beta virt. eigenvalues --    3.46275   3.47274   3.51557   3.54976   3.55531
  Beta virt. eigenvalues --    3.59673   3.63000   3.86066   3.93145   4.26105
  Beta virt. eigenvalues --    4.39242   4.54743   4.64525   4.67945   4.74376
  Beta virt. eigenvalues --    4.76886   4.79003   4.80730   4.81669   4.84123
  Beta virt. eigenvalues --    4.91081   4.93160   4.98469   5.05910   5.12769
  Beta virt. eigenvalues --    5.23265   5.37565   5.82181
          Condensed to atoms (all electrons):
               1          2          3          4          5          6
     1  C    5.130976   0.311505   0.453131  -0.067091  -0.093018   0.003205
     2  C    0.311505   5.141634  -0.031837  -0.012672   0.004574  -0.000039
     3  C    0.453131  -0.031837   4.454047   0.447150   0.397525  -0.049746
     4  O   -0.067091  -0.012672   0.447150   8.316873  -0.070657  -0.000011
     5  C   -0.093018   0.004574   0.397525  -0.070657   4.953675   0.231287
     6  O    0.003205  -0.000039  -0.049746  -0.000011   0.231287   8.435223
     7  C   -0.007847  -0.000443  -0.045483   0.004077   0.470246  -0.059693
     8  O   -0.000058   0.000001   0.002015  -0.000010  -0.059223  -0.002637
     9  C   -0.032822   0.002106  -0.011884  -0.000064  -0.042282   0.001856
    10  O    0.003805  -0.000037  -0.000080  -0.000000   0.004005  -0.000008
    11  C    0.523599  -0.044531  -0.034189   0.003808  -0.010154  -0.000142
    12  C   -0.045627  -0.014947   0.002338  -0.000047  -0.000326   0.000001
    13  H   -0.039375   0.385380  -0.000902   0.000311  -0.000115   0.000000
    14  H   -0.042653   0.392139  -0.003352   0.014765   0.000744  -0.000006
    15  H   -0.043774   0.389292   0.000836   0.000278   0.000016   0.000000
    16  C   -0.000357  -0.000002  -0.004833  -0.009891  -0.045932   0.215215
    17  H   -0.000191   0.000012   0.000206   0.009045  -0.006238  -0.034482
    18  H    0.000095  -0.000001   0.000342   0.000319  -0.001306  -0.040071
    19  H    0.000006  -0.000000  -0.000092   0.000228   0.004750  -0.036440
    20  C    0.000042  -0.000000  -0.000134   0.000001  -0.005683   0.000611
    21  H   -0.000022   0.000000  -0.000155   0.000000   0.002608   0.000588
    22  H   -0.000001   0.000000   0.000004  -0.000000  -0.000042  -0.000017
    23  H   -0.000010   0.000000   0.000041  -0.000000   0.000052   0.000014
    24  H   -0.000077  -0.002164   0.000206  -0.000000  -0.000026  -0.000000
    25  H    0.002223   0.000090   0.000004   0.000000  -0.000052   0.000000
    26  C   -0.001455  -0.000570   0.000069   0.000001  -0.000029  -0.000000
    27  H   -0.000134  -0.000706  -0.000017   0.000000  -0.000000   0.000000
    28  C   -0.000027  -0.000000  -0.000001  -0.000000   0.000002  -0.000000
    29  C    0.000202   0.000018   0.000010   0.000000  -0.000005  -0.000000
    30  H    0.000000  -0.000000   0.000000   0.000000  -0.000000   0.000000
    31  H    0.000043  -0.000001  -0.000000  -0.000000  -0.000002   0.000000
    32  C    0.000001   0.000001  -0.000000   0.000000   0.000000  -0.000000
    33  H    0.000000  -0.000002   0.000000   0.000000  -0.000000   0.000000
    34  H    0.000000  -0.000000   0.000000   0.000000  -0.000000  -0.000000
    35  H    0.000001   0.000000  -0.000000  -0.000000  -0.000000   0.000000
    36  H    0.000000   0.000000  -0.000000  -0.000000  -0.000000   0.000000
    37  H   -0.000003   0.000000   0.000000  -0.000000  -0.000002   0.000000
    38  O    0.000000  -0.000000  -0.000000  -0.000000   0.000000  -0.000000
    39  H    0.000000  -0.000000   0.000000   0.000000  -0.000000   0.000000
               7          8          9         10         11         12
     1  C   -0.007847  -0.000058  -0.032822   0.003805   0.523599  -0.045627
     2  C   -0.000443   0.000001   0.002106  -0.000037  -0.044531  -0.014947
     3  C   -0.045483   0.002015  -0.011884  -0.000080  -0.034189   0.002338
     4  O    0.004077  -0.000010  -0.000064  -0.000000   0.003808  -0.000047
     5  C    0.470246  -0.059223  -0.042282   0.004005  -0.010154  -0.000326
     6  O   -0.059693  -0.002637   0.001856  -0.000008  -0.000142   0.000001
     7  C    4.957829   0.225830   0.414998  -0.070589  -0.091638   0.004339
     8  O    0.225830   8.433367  -0.049607  -0.000955   0.003724  -0.000051
     9  C    0.414998  -0.049607   4.445055   0.414100   0.445414  -0.033242
    10  O   -0.070589  -0.000955   0.414100   8.490499  -0.072324  -0.009422
    11  C   -0.091638   0.003724   0.445414  -0.072324   5.211017   0.300191
    12  C    0.004339  -0.000051  -0.033242  -0.009422   0.300191   5.131675
    13  H    0.000030  -0.000000  -0.000038   0.000000  -0.001538   0.000168
    14  H   -0.000027   0.000000  -0.000024   0.000000   0.002155   0.000182
    15  H   -0.000015  -0.000000   0.000104  -0.000000  -0.001111  -0.002055
    16  C   -0.002510   0.000299  -0.000040   0.000001   0.000022  -0.000000
    17  H   -0.000363   0.000006   0.000014  -0.000000  -0.000005   0.000000
    18  H    0.002714   0.000179  -0.000070  -0.000000  -0.000012   0.000000
    19  H   -0.000015  -0.000011   0.000003  -0.000000  -0.000000   0.000000
    20  C   -0.047404   0.215495  -0.005941  -0.006752  -0.000475   0.000002
    21  H   -0.002738  -0.039878   0.000557   0.000254   0.000138  -0.000000
    22  H    0.005193  -0.036200  -0.000064   0.000117   0.000008  -0.000000
    23  H   -0.006832  -0.034834  -0.000272   0.011758  -0.000320   0.000004
    24  H    0.000067   0.000000   0.001845   0.000313  -0.055480   0.406667
    25  H    0.000574  -0.000003  -0.004916   0.013487  -0.040697   0.397865
    26  C   -0.000031   0.000001  -0.004043  -0.000458  -0.065735   0.336100
    27  H    0.000004  -0.000000   0.000137  -0.000024   0.000529  -0.040827
    28  C   -0.000074   0.000000  -0.000461  -0.013756   0.001433  -0.007751
    29  C   -0.000007   0.000000   0.001004   0.000854  -0.004312  -0.039802
    30  H    0.000000   0.000000   0.000039   0.000222  -0.000110   0.000490
    31  H    0.000167  -0.000005  -0.000872   0.022566  -0.001768  -0.002128
    32  C   -0.000001   0.000000  -0.000021   0.000003  -0.000185   0.003677
    33  H    0.000000   0.000000  -0.000000   0.000000  -0.000008   0.000102
    34  H   -0.000000   0.000000   0.000000  -0.000000  -0.000009  -0.000102
    35  H    0.000000  -0.000000   0.000002  -0.000000   0.000041  -0.000086
    36  H    0.000001  -0.000000  -0.000028   0.000026   0.000057   0.000239
    37  H   -0.000051  -0.000008  -0.001055   0.026760   0.000198  -0.000022
    38  O   -0.000000   0.000000  -0.000026  -0.006904   0.000007  -0.000018
    39  H   -0.000001   0.000000  -0.000002   0.000096   0.000004  -0.000010
              13         14         15         16         17         18
     1  C   -0.039375  -0.042653  -0.043774  -0.000357  -0.000191   0.000095
     2  C    0.385380   0.392139   0.389292  -0.000002   0.000012  -0.000001
     3  C   -0.000902  -0.003352   0.000836  -0.004833   0.000206   0.000342
     4  O    0.000311   0.014765   0.000278  -0.009891   0.009045   0.000319
     5  C   -0.000115   0.000744   0.000016  -0.045932  -0.006238  -0.001306
     6  O    0.000000  -0.000006   0.000000   0.215215  -0.034482  -0.040071
     7  C    0.000030  -0.000027  -0.000015  -0.002510  -0.000363   0.002714
     8  O   -0.000000   0.000000  -0.000000   0.000299   0.000006   0.000179
     9  C   -0.000038  -0.000024   0.000104  -0.000040   0.000014  -0.000070
    10  O    0.000000   0.000000  -0.000000   0.000001  -0.000000  -0.000000
    11  C   -0.001538   0.002155  -0.001111   0.000022  -0.000005  -0.000012
    12  C    0.000168   0.000182  -0.002055  -0.000000   0.000000   0.000000
    13  H    0.570454  -0.025149  -0.036301  -0.000000   0.000000   0.000000
    14  H   -0.025149   0.477899  -0.022897   0.000003   0.000000  -0.000000
    15  H   -0.036301  -0.022897   0.569493   0.000000  -0.000000  -0.000000
    16  C   -0.000000   0.000003   0.000000   4.848581   0.390476   0.381722
    17  H    0.000000   0.000000  -0.000000   0.390476   0.515160  -0.039338
    18  H    0.000000  -0.000000  -0.000000   0.381722  -0.039338   0.592627
    19  H    0.000000  -0.000000   0.000000   0.392245  -0.028471  -0.033789
    20  C    0.000000  -0.000000  -0.000000  -0.000124   0.000000   0.000021
    21  H   -0.000000  -0.000000   0.000000   0.000016   0.000001  -0.000003
    22  H   -0.000000   0.000000   0.000000   0.000003  -0.000000  -0.000001
    23  H   -0.000000   0.000000  -0.000000   0.000000   0.000000   0.000001
    24  H   -0.000718   0.000047   0.002091   0.000000   0.000000  -0.000000
    25  H   -0.000027   0.000004   0.000044  -0.000000  -0.000000  -0.000000
    26  C   -0.000024  -0.000005  -0.000217  -0.000000  -0.000000   0.000000
    27  H    0.000902   0.000022   0.000053  -0.000000   0.000000   0.000000
    28  C    0.000000   0.000000  -0.000000   0.000000  -0.000000   0.000000
    29  C    0.000043  -0.000000   0.000003  -0.000000  -0.000000   0.000000
    30  H    0.000000  -0.000000  -0.000000   0.000000   0.000000  -0.000000
    31  H   -0.000000   0.000000  -0.000000   0.000000   0.000000  -0.000000
    32  C    0.000001  -0.000000  -0.000000   0.000000  -0.000000   0.000000
    33  H    0.000002   0.000000  -0.000000   0.000000  -0.000000  -0.000000
    34  H    0.000000   0.000000   0.000000  -0.000000  -0.000000   0.000000
    35  H   -0.000001   0.000000   0.000000   0.000000   0.000000  -0.000000
    36  H   -0.000000  -0.000000   0.000000   0.000000   0.000000  -0.000000
    37  H   -0.000000  -0.000000   0.000000  -0.000000   0.000000  -0.000000
    38  O    0.000000   0.000000   0.000000   0.000000  -0.000000   0.000000
    39  H    0.000000  -0.000000  -0.000000  -0.000000   0.000000   0.000000
              19         20         21         22         23         24
     1  C    0.000006   0.000042  -0.000022  -0.000001  -0.000010  -0.000077
     2  C   -0.000000  -0.000000   0.000000   0.000000   0.000000  -0.002164
     3  C   -0.000092  -0.000134  -0.000155   0.000004   0.000041   0.000206
     4  O    0.000228   0.000001   0.000000  -0.000000  -0.000000  -0.000000
     5  C    0.004750  -0.005683   0.002608  -0.000042   0.000052  -0.000026
     6  O   -0.036440   0.000611   0.000588  -0.000017   0.000014  -0.000000
     7  C   -0.000015  -0.047404  -0.002738   0.005193  -0.006832   0.000067
     8  O   -0.000011   0.215495  -0.039878  -0.036200  -0.034834   0.000000
     9  C    0.000003  -0.005941   0.000557  -0.000064  -0.000272   0.001845
    10  O   -0.000000  -0.006752   0.000254   0.000117   0.011758   0.000313
    11  C   -0.000000  -0.000475   0.000138   0.000008  -0.000320  -0.055480
    12  C    0.000000   0.000002  -0.000000  -0.000000   0.000004   0.406667
    13  H    0.000000   0.000000  -0.000000  -0.000000  -0.000000  -0.000718
    14  H   -0.000000  -0.000000  -0.000000   0.000000   0.000000   0.000047
    15  H    0.000000  -0.000000   0.000000   0.000000  -0.000000   0.002091
    16  C    0.392245  -0.000124   0.000016   0.000003   0.000000   0.000000
    17  H   -0.028471   0.000000   0.000001  -0.000000   0.000000   0.000000
    18  H   -0.033789   0.000021  -0.000003  -0.000001   0.000001  -0.000000
    19  H    0.564091   0.000002  -0.000002  -0.000000  -0.000000  -0.000000
    20  C    0.000002   4.844790   0.381491   0.392253   0.390433   0.000000
    21  H   -0.000002   0.381491   0.599597  -0.033901  -0.039788   0.000000
    22  H   -0.000000   0.392253  -0.033901   0.564537  -0.028388   0.000000
    23  H   -0.000000   0.390433  -0.039788  -0.028388   0.514713  -0.000000
    24  H   -0.000000   0.000000   0.000000   0.000000  -0.000000   0.573683
    25  H   -0.000000  -0.000002  -0.000000   0.000000   0.000017  -0.024175
    26  C    0.000000   0.000000  -0.000000   0.000000  -0.000000  -0.047302
    27  H   -0.000000   0.000000  -0.000000  -0.000000   0.000000  -0.002817
    28  C   -0.000000  -0.000000   0.000000   0.000000   0.000003   0.000074
    29  C    0.000000   0.000000   0.000000  -0.000000  -0.000000   0.001488
    30  H    0.000000   0.000000  -0.000000  -0.000000  -0.000000   0.000049
    31  H    0.000000   0.000004  -0.000000  -0.000000  -0.000021   0.000065
    32  C    0.000000  -0.000000   0.000000   0.000000  -0.000000  -0.000107
    33  H    0.000000  -0.000000  -0.000000  -0.000000  -0.000000  -0.000012
    34  H    0.000000  -0.000000   0.000000   0.000000  -0.000000   0.000011
    35  H   -0.000000   0.000000  -0.000000  -0.000000   0.000000  -0.000002
    36  H   -0.000000   0.000000  -0.000000  -0.000000   0.000000  -0.000008
    37  H    0.000000  -0.000076  -0.000001   0.000005   0.000463  -0.000001
    38  O   -0.000000  -0.000019   0.000000  -0.000001   0.000116  -0.000000
    39  H   -0.000000   0.000001  -0.000000   0.000000  -0.000004  -0.000000
              25         26         27         28         29         30
     1  C    0.002223  -0.001455  -0.000134  -0.000027   0.000202   0.000000
     2  C    0.000090  -0.000570  -0.000706  -0.000000   0.000018  -0.000000
     3  C    0.000004   0.000069  -0.000017  -0.000001   0.000010   0.000000
     4  O    0.000000   0.000001   0.000000  -0.000000   0.000000   0.000000
     5  C   -0.000052  -0.000029  -0.000000   0.000002  -0.000005  -0.000000
     6  O    0.000000  -0.000000   0.000000  -0.000000  -0.000000   0.000000
     7  C    0.000574  -0.000031   0.000004  -0.000074  -0.000007   0.000000
     8  O   -0.000003   0.000001  -0.000000   0.000000   0.000000   0.000000
     9  C   -0.004916  -0.004043   0.000137  -0.000461   0.001004   0.000039
    10  O    0.013487  -0.000458  -0.000024  -0.013756   0.000854   0.000222
    11  C   -0.040697  -0.065735   0.000529   0.001433  -0.004312  -0.000110
    12  C    0.397865   0.336100  -0.040827  -0.007751  -0.039802   0.000490
    13  H   -0.000027  -0.000024   0.000902   0.000000   0.000043   0.000000
    14  H    0.000004  -0.000005   0.000022   0.000000  -0.000000  -0.000000
    15  H    0.000044  -0.000217   0.000053  -0.000000   0.000003  -0.000000
    16  C   -0.000000  -0.000000  -0.000000   0.000000  -0.000000   0.000000
    17  H   -0.000000  -0.000000   0.000000  -0.000000  -0.000000   0.000000
    18  H   -0.000000   0.000000   0.000000   0.000000   0.000000  -0.000000
    19  H   -0.000000   0.000000  -0.000000  -0.000000   0.000000   0.000000
    20  C   -0.000002   0.000000   0.000000  -0.000000   0.000000   0.000000
    21  H   -0.000000  -0.000000  -0.000000   0.000000   0.000000  -0.000000
    22  H    0.000000   0.000000  -0.000000   0.000000  -0.000000  -0.000000
    23  H    0.000017  -0.000000   0.000000   0.000003  -0.000000  -0.000000
    24  H   -0.024175  -0.047302  -0.002817   0.000074   0.001488   0.000049
    25  H    0.487673  -0.038576   0.002816   0.000387  -0.001259  -0.000210
    26  C   -0.038576   5.008910   0.390843  -0.041211   0.708658  -0.003069
    27  H    0.002816   0.390843   0.540425   0.003836  -0.043811  -0.000143
    28  C    0.000387  -0.041211   0.003836   5.210240   0.325161   0.371735
    29  C   -0.001259   0.708658  -0.043811   0.325161   4.864277  -0.043728
    30  H   -0.000210  -0.003069  -0.000143   0.371735  -0.043728   0.606946
    31  H   -0.001396  -0.001642  -0.000019   0.367485  -0.026889  -0.019364
    32  C    0.000069  -0.045881  -0.006950  -0.068152   0.353849   0.000243
    33  H    0.000006  -0.000502   0.003523   0.003911  -0.041365  -0.000133
    34  H    0.000000  -0.001328   0.000144   0.000277  -0.045351   0.002173
    35  H   -0.000001  -0.000755   0.000216  -0.001566  -0.040926  -0.000309
    36  H    0.000055   0.001256  -0.000113   0.394661  -0.045673  -0.037832
    37  H    0.000099  -0.000001   0.000000  -0.000140  -0.000029  -0.000092
    38  O    0.000004  -0.000001  -0.000000  -0.001573   0.000110  -0.000027
    39  H    0.000050   0.000003  -0.000000   0.000489   0.000001   0.000281
              31         32         33         34         35         36
     1  C    0.000043   0.000001   0.000000   0.000000   0.000001   0.000000
     2  C   -0.000001   0.000001  -0.000002  -0.000000   0.000000   0.000000
     3  C   -0.000000  -0.000000   0.000000   0.000000  -0.000000  -0.000000
     4  O   -0.000000   0.000000   0.000000   0.000000  -0.000000  -0.000000
     5  C   -0.000002   0.000000  -0.000000  -0.000000  -0.000000  -0.000000
     6  O    0.000000  -0.000000   0.000000  -0.000000   0.000000   0.000000
     7  C    0.000167  -0.000001   0.000000  -0.000000   0.000000   0.000001
     8  O   -0.000005   0.000000   0.000000   0.000000  -0.000000  -0.000000
     9  C   -0.000872  -0.000021  -0.000000   0.000000   0.000002  -0.000028
    10  O    0.022566   0.000003   0.000000  -0.000000  -0.000000   0.000026
    11  C   -0.001768  -0.000185  -0.000008  -0.000009   0.000041   0.000057
    12  C   -0.002128   0.003677   0.000102  -0.000102  -0.000086   0.000239
    13  H   -0.000000   0.000001   0.000002   0.000000  -0.000001  -0.000000
    14  H    0.000000  -0.000000   0.000000   0.000000   0.000000  -0.000000
    15  H   -0.000000  -0.000000  -0.000000   0.000000   0.000000   0.000000
    16  C    0.000000   0.000000   0.000000  -0.000000   0.000000   0.000000
    17  H    0.000000  -0.000000  -0.000000  -0.000000   0.000000   0.000000
    18  H   -0.000000   0.000000  -0.000000   0.000000  -0.000000  -0.000000
    19  H    0.000000   0.000000   0.000000   0.000000  -0.000000  -0.000000
    20  C    0.000004  -0.000000  -0.000000  -0.000000   0.000000   0.000000
    21  H   -0.000000   0.000000  -0.000000   0.000000  -0.000000  -0.000000
    22  H   -0.000000   0.000000  -0.000000   0.000000  -0.000000  -0.000000
    23  H   -0.000021  -0.000000  -0.000000  -0.000000   0.000000   0.000000
    24  H    0.000065  -0.000107  -0.000012   0.000011  -0.000002  -0.000008
    25  H   -0.001396   0.000069   0.000006   0.000000  -0.000001   0.000055
    26  C   -0.001642  -0.045881  -0.000502  -0.001328  -0.000755   0.001256
    27  H   -0.000019  -0.006950   0.003523   0.000144   0.000216  -0.000113
    28  C    0.367485  -0.068152   0.003911   0.000277  -0.001566   0.394661
    29  C   -0.026889   0.353849  -0.041365  -0.045351  -0.040926  -0.045673
    30  H   -0.019364   0.000243  -0.000133   0.002173  -0.000309  -0.037832
    31  H    0.422028   0.002909  -0.000086  -0.000007  -0.000077  -0.021357
    32  C    0.002909   5.103930   0.390412   0.385019   0.384128  -0.003614
    33  H   -0.000086   0.390412   0.545459  -0.027630  -0.025665   0.000104
    34  H   -0.000007   0.385019  -0.027630   0.588917  -0.039712  -0.000765
    35  H   -0.000077   0.384128  -0.025665  -0.039712   0.569080   0.003150
    36  H   -0.021357  -0.003614   0.000104  -0.000765   0.003150   0.561107
    37  H    0.002301  -0.000000  -0.000000  -0.000000   0.000000   0.000062
    38  O    0.005854  -0.000000   0.000000   0.000000   0.000000   0.000105
    39  H    0.001008   0.000000  -0.000000   0.000000  -0.000000  -0.000073
              37         38         39
     1  C   -0.000003   0.000000   0.000000
     2  C    0.000000  -0.000000  -0.000000
     3  C    0.000000  -0.000000   0.000000
     4  O   -0.000000  -0.000000   0.000000
     5  C   -0.000002   0.000000  -0.000000
     6  O    0.000000  -0.000000   0.000000
     7  C   -0.000051  -0.000000  -0.000001
     8  O   -0.000008   0.000000   0.000000
     9  C   -0.001055  -0.000026  -0.000002
    10  O    0.026760  -0.006904   0.000096
    11  C    0.000198   0.000007   0.000004
    12  C   -0.000022  -0.000018  -0.000010
    13  H   -0.000000   0.000000   0.000000
    14  H   -0.000000   0.000000  -0.000000
    15  H    0.000000   0.000000  -0.000000
    16  C   -0.000000   0.000000  -0.000000
    17  H    0.000000  -0.000000   0.000000
    18  H   -0.000000   0.000000   0.000000
    19  H    0.000000  -0.000000  -0.000000
    20  C   -0.000076  -0.000019   0.000001
    21  H   -0.000001   0.000000  -0.000000
    22  H    0.000005  -0.000001   0.000000
    23  H    0.000463   0.000116  -0.000004
    24  H   -0.000001  -0.000000  -0.000000
    25  H    0.000099   0.000004   0.000050
    26  C   -0.000001  -0.000001   0.000003
    27  H    0.000000  -0.000000  -0.000000
    28  C   -0.000140  -0.001573   0.000489
    29  C   -0.000029   0.000110   0.000001
    30  H   -0.000092  -0.000027   0.000281
    31  H    0.002301   0.005854   0.001008
    32  C   -0.000000  -0.000000   0.000000
    33  H   -0.000000   0.000000  -0.000000
    34  H   -0.000000   0.000000   0.000000
    35  H    0.000000   0.000000  -0.000000
    36  H    0.000062   0.000105  -0.000073
    37  H    0.222418   0.252841  -0.018825
    38  O    0.252841   8.430015   0.264501
    39  H   -0.018825   0.264501   0.341307
          Atomic-Atomic Spin Densities.
               1          2          3          4          5          6
     1  C    0.530968  -0.010346   0.061772  -0.006824  -0.013159   0.000112
     2  C   -0.010346  -0.067260  -0.003696   0.000911  -0.000057   0.000000
     3  C    0.061772  -0.003696  -0.211511  -0.111709   0.062778  -0.001903
     4  O   -0.006824   0.000911  -0.111709   0.582737  -0.005766   0.000650
     5  C   -0.013159  -0.000057   0.062778  -0.005766   0.468812  -0.030847
     6  O    0.000112   0.000000  -0.001903   0.000650  -0.030847   0.010253
     7  C   -0.002849   0.000008  -0.002274   0.000332  -0.052841   0.004925
     8  O    0.000020  -0.000000  -0.000039   0.000000   0.001210  -0.000226
     9  C   -0.009465  -0.000051  -0.002376   0.000052  -0.010909   0.000026
    10  O    0.000632  -0.000000   0.000023  -0.000000   0.000488  -0.000000
    11  C   -0.076110   0.005329  -0.005497   0.000457  -0.001876  -0.000002
    12  C    0.000790   0.000163  -0.000135   0.000002   0.000022  -0.000000
    13  H   -0.009217   0.004827  -0.000307   0.000168  -0.000009   0.000000
    14  H   -0.001231   0.003973   0.001070  -0.002172  -0.000023   0.000000
    15  H   -0.007049   0.004500  -0.000076   0.000044  -0.000006   0.000000
    16  C   -0.000005   0.000000  -0.000499   0.000012  -0.008302   0.003560
    17  H   -0.000067  -0.000000  -0.001002  -0.000380  -0.001110   0.000196
    18  H    0.000003  -0.000000   0.000392  -0.000089   0.002162  -0.000540
    19  H    0.000000  -0.000000  -0.000032  -0.000029   0.000629   0.000225
    20  C    0.000026   0.000000  -0.000046  -0.000000   0.001577  -0.000059
    21  H   -0.000008   0.000000   0.000005   0.000000  -0.000340   0.000044
    22  H   -0.000000  -0.000000  -0.000000   0.000000  -0.000025   0.000002
    23  H    0.000010  -0.000000   0.000006  -0.000000   0.000145  -0.000002
    24  H    0.000268  -0.000341   0.000016  -0.000000   0.000002  -0.000000
    25  H    0.000387  -0.000015  -0.000005  -0.000000   0.000016   0.000000
    26  C    0.000429   0.000056  -0.000001  -0.000001   0.000015  -0.000000
    27  H   -0.000227   0.000025  -0.000010   0.000000  -0.000001   0.000000
    28  C   -0.000006  -0.000000  -0.000000   0.000000  -0.000000   0.000000
    29  C    0.000012  -0.000002   0.000001  -0.000000   0.000001  -0.000000
    30  H    0.000000   0.000000   0.000000  -0.000000   0.000000  -0.000000
    31  H    0.000008   0.000000   0.000000  -0.000000  -0.000000  -0.000000
    32  C    0.000004  -0.000000   0.000000  -0.000000   0.000000  -0.000000
    33  H    0.000000   0.000000   0.000000  -0.000000   0.000000  -0.000000
    34  H    0.000000  -0.000000   0.000000  -0.000000   0.000000  -0.000000
    35  H   -0.000000   0.000000  -0.000000   0.000000  -0.000000   0.000000
    36  H   -0.000000   0.000000  -0.000000   0.000000  -0.000000   0.000000
    37  H    0.000000  -0.000000  -0.000000  -0.000000   0.000000   0.000000
    38  O   -0.000000   0.000000   0.000000   0.000000  -0.000000  -0.000000
    39  H    0.000000  -0.000000  -0.000000  -0.000000   0.000000   0.000000
               7          8          9         10         11         12
     1  C   -0.002849   0.000020  -0.009465   0.000632  -0.076110   0.000790
     2  C    0.000008  -0.000000  -0.000051  -0.000000   0.005329   0.000163
     3  C   -0.002274  -0.000039  -0.002376   0.000023  -0.005497  -0.000135
     4  O    0.000332   0.000000   0.000052  -0.000000   0.000457   0.000002
     5  C   -0.052841   0.001210  -0.010909   0.000488  -0.001876   0.000022
     6  O    0.004925  -0.000226   0.000026  -0.000000  -0.000002  -0.000000
     7  C   -0.388991   0.021365   0.072621  -0.000474   0.002664   0.000094
     8  O    0.021365  -0.001537  -0.004380   0.000275  -0.000107   0.000000
     9  C    0.072621  -0.004380   0.353955  -0.134714   0.086855  -0.005293
    10  O   -0.000474   0.000275  -0.134714   0.368117  -0.001669  -0.000334
    11  C    0.002664  -0.000107   0.086855  -0.001669  -0.355227   0.013677
    12  C    0.000094   0.000000  -0.005293  -0.000334   0.013677   0.018704
    13  H    0.000008  -0.000000   0.000031  -0.000000   0.000881  -0.000046
    14  H    0.000003  -0.000000  -0.000005  -0.000000  -0.000123   0.000025
    15  H    0.000006  -0.000000   0.000023  -0.000001   0.000916  -0.000196
    16  C    0.001433  -0.000043  -0.000004  -0.000000   0.000012  -0.000000
    17  H    0.000068  -0.000001   0.000004  -0.000000   0.000005  -0.000000
    18  H   -0.000755   0.000050  -0.000006   0.000000  -0.000005   0.000000
    19  H    0.000001   0.000000  -0.000001   0.000000   0.000000   0.000000
    20  C    0.012640  -0.003910  -0.000924  -0.000126  -0.000096  -0.000001
    21  H   -0.002088   0.000611   0.000212  -0.000018   0.000017   0.000000
    22  H   -0.000312  -0.000091   0.000034  -0.000033   0.000002   0.000000
    23  H   -0.000557  -0.000064  -0.002432   0.000559  -0.000085  -0.000001
    24  H   -0.000012   0.000000  -0.000115   0.000016   0.001305  -0.001430
    25  H   -0.000098  -0.000000  -0.001674  -0.000216   0.001709  -0.000333
    26  C   -0.000059   0.000000  -0.000290   0.000190   0.003942  -0.006738
    27  H    0.000002  -0.000000   0.000072  -0.000003   0.000324  -0.000253
    28  C    0.000007  -0.000000   0.000547   0.000008  -0.000085   0.000094
    29  C   -0.000005   0.000000  -0.000469   0.000070  -0.000980   0.000326
    30  H   -0.000000   0.000000  -0.000017   0.000002   0.000006  -0.000025
    31  H   -0.000021   0.000001  -0.001035  -0.000498   0.000087  -0.000039
    32  C   -0.000000   0.000000  -0.000015   0.000001   0.000025  -0.000003
    33  H    0.000000   0.000000  -0.000000   0.000000  -0.000002   0.000001
    34  H   -0.000000   0.000000  -0.000000   0.000000   0.000000  -0.000000
    35  H    0.000000  -0.000000   0.000003  -0.000001  -0.000003   0.000000
    36  H    0.000000  -0.000000   0.000027  -0.000031  -0.000002  -0.000001
    37  H   -0.000001  -0.000001   0.000000  -0.002642  -0.000020   0.000005
    38  O    0.000000   0.000000   0.000012   0.000441   0.000000  -0.000001
    39  H    0.000000  -0.000000  -0.000001   0.000011  -0.000000   0.000000
              13         14         15         16         17         18
     1  C   -0.009217  -0.001231  -0.007049  -0.000005  -0.000067   0.000003
     2  C    0.004827   0.003973   0.004500   0.000000  -0.000000  -0.000000
     3  C   -0.000307   0.001070  -0.000076  -0.000499  -0.001002   0.000392
     4  O    0.000168  -0.002172   0.000044   0.000012  -0.000380  -0.000089
     5  C   -0.000009  -0.000023  -0.000006  -0.008302  -0.001110   0.002162
     6  O    0.000000   0.000000   0.000000   0.003560   0.000196  -0.000540
     7  C    0.000008   0.000003   0.000006   0.001433   0.000068  -0.000755
     8  O   -0.000000  -0.000000  -0.000000  -0.000043  -0.000001   0.000050
     9  C    0.000031  -0.000005   0.000023  -0.000004   0.000004  -0.000006
    10  O   -0.000000  -0.000000  -0.000001  -0.000000  -0.000000   0.000000
    11  C    0.000881  -0.000123   0.000916   0.000012   0.000005  -0.000005
    12  C   -0.000046   0.000025  -0.000196  -0.000000  -0.000000   0.000000
    13  H    0.028036  -0.001420  -0.004866  -0.000000   0.000001   0.000000
    14  H   -0.001420   0.001919   0.000283   0.000000   0.000000   0.000000
    15  H   -0.004866   0.000283   0.019552   0.000000  -0.000000   0.000000
    16  C   -0.000000   0.000000   0.000000   0.009830   0.001093  -0.000996
    17  H    0.000001   0.000000  -0.000000   0.001093   0.001075  -0.000593
    18  H    0.000000   0.000000   0.000000  -0.000996  -0.000593  -0.000265
    19  H    0.000000   0.000000  -0.000000  -0.000510  -0.000472   0.000892
    20  C    0.000000  -0.000000  -0.000000   0.000046   0.000001  -0.000011
    21  H   -0.000000   0.000000   0.000000  -0.000009  -0.000000   0.000001
    22  H   -0.000000   0.000000   0.000000  -0.000001  -0.000000   0.000000
    23  H    0.000000  -0.000000  -0.000000   0.000001   0.000000  -0.000000
    24  H    0.000151  -0.000014  -0.000336   0.000000   0.000000  -0.000000
    25  H    0.000015  -0.000001  -0.000030   0.000000   0.000000  -0.000000
    26  C   -0.000297   0.000004   0.000102  -0.000000  -0.000000   0.000000
    27  H    0.000218  -0.000002  -0.000042   0.000000   0.000000  -0.000000
    28  C    0.000000  -0.000000  -0.000000   0.000000   0.000000  -0.000000
    29  C   -0.000006  -0.000000   0.000002  -0.000000  -0.000000   0.000000
    30  H   -0.000000   0.000000   0.000000  -0.000000  -0.000000   0.000000
    31  H   -0.000000   0.000000   0.000000  -0.000000  -0.000000   0.000000
    32  C   -0.000001   0.000000   0.000000  -0.000000  -0.000000   0.000000
    33  H   -0.000000  -0.000000   0.000000  -0.000000  -0.000000   0.000000
    34  H   -0.000000   0.000000   0.000000  -0.000000  -0.000000   0.000000
    35  H    0.000000  -0.000000  -0.000000   0.000000   0.000000  -0.000000
    36  H    0.000000  -0.000000  -0.000000   0.000000   0.000000  -0.000000
    37  H    0.000000  -0.000000  -0.000000   0.000000   0.000000  -0.000000
    38  O   -0.000000   0.000000   0.000000  -0.000000  -0.000000   0.000000
    39  H    0.000000  -0.000000  -0.000000   0.000000   0.000000  -0.000000
              19         20         21         22         23         24
     1  C    0.000000   0.000026  -0.000008  -0.000000   0.000010   0.000268
     2  C   -0.000000   0.000000   0.000000  -0.000000  -0.000000  -0.000341
     3  C   -0.000032  -0.000046   0.000005  -0.000000   0.000006   0.000016
     4  O   -0.000029  -0.000000   0.000000   0.000000  -0.000000  -0.000000
     5  C    0.000629   0.001577  -0.000340  -0.000025   0.000145   0.000002
     6  O    0.000225  -0.000059   0.000044   0.000002  -0.000002  -0.000000
     7  C    0.000001   0.012640  -0.002088  -0.000312  -0.000557  -0.000012
     8  O    0.000000  -0.003910   0.000611  -0.000091  -0.000064   0.000000
     9  C   -0.000001  -0.000924   0.000212   0.000034  -0.002432  -0.000115
    10  O    0.000000  -0.000126  -0.000018  -0.000033   0.000559   0.000016
    11  C    0.000000  -0.000096   0.000017   0.000002  -0.000085   0.001305
    12  C    0.000000  -0.000001   0.000000   0.000000  -0.000001  -0.001430
    13  H    0.000000   0.000000  -0.000000  -0.000000   0.000000   0.000151
    14  H    0.000000  -0.000000   0.000000   0.000000  -0.000000  -0.000014
    15  H   -0.000000  -0.000000   0.000000   0.000000  -0.000000  -0.000336
    16  C   -0.000510   0.000046  -0.000009  -0.000001   0.000001   0.000000
    17  H   -0.000472   0.000001  -0.000000  -0.000000   0.000000   0.000000
    18  H    0.000892  -0.000011   0.000001   0.000000  -0.000000  -0.000000
    19  H   -0.000154   0.000000   0.000000   0.000000  -0.000000  -0.000000
    20  C    0.000000  -0.021199   0.002295   0.001680   0.000751   0.000000
    21  H    0.000000   0.002295  -0.000439  -0.000480  -0.000280  -0.000000
    22  H    0.000000   0.001680  -0.000480  -0.000762  -0.000575  -0.000000
    23  H   -0.000000   0.000751  -0.000280  -0.000575   0.002776   0.000000
    24  H   -0.000000   0.000000  -0.000000  -0.000000   0.000000  -0.003932
    25  H   -0.000000  -0.000000  -0.000000  -0.000000   0.000003   0.000275
    26  C    0.000000  -0.000000   0.000000   0.000000  -0.000000   0.001066
    27  H   -0.000000   0.000000  -0.000000  -0.000000   0.000000   0.000138
    28  C   -0.000000  -0.000000  -0.000000  -0.000000   0.000000   0.000029
    29  C    0.000000   0.000000   0.000000   0.000000  -0.000000  -0.000284
    30  H    0.000000  -0.000000   0.000000   0.000000  -0.000000  -0.000002
    31  H    0.000000  -0.000000   0.000000   0.000000  -0.000001  -0.000025
    32  C    0.000000  -0.000000   0.000000   0.000000  -0.000000   0.000003
    33  H    0.000000   0.000000  -0.000000   0.000000  -0.000000  -0.000000
    34  H    0.000000  -0.000000   0.000000   0.000000  -0.000000   0.000000
    35  H   -0.000000   0.000000  -0.000000  -0.000000   0.000000  -0.000000
    36  H   -0.000000   0.000000  -0.000000  -0.000000   0.000000  -0.000000
    37  H   -0.000000   0.000009  -0.000000  -0.000002  -0.000006   0.000000
    38  O    0.000000  -0.000001   0.000000   0.000000   0.000002  -0.000000
    39  H   -0.000000   0.000000   0.000000  -0.000000   0.000000   0.000000
              25         26         27         28         29         30
     1  C    0.000387   0.000429  -0.000227  -0.000006   0.000012   0.000000
     2  C   -0.000015   0.000056   0.000025  -0.000000  -0.000002   0.000000
     3  C   -0.000005  -0.000001  -0.000010  -0.000000   0.000001   0.000000
     4  O   -0.000000  -0.000001   0.000000   0.000000  -0.000000  -0.000000
     5  C    0.000016   0.000015  -0.000001  -0.000000   0.000001   0.000000
     6  O    0.000000  -0.000000   0.000000   0.000000  -0.000000  -0.000000
     7  C   -0.000098  -0.000059   0.000002   0.000007  -0.000005  -0.000000
     8  O   -0.000000   0.000000  -0.000000  -0.000000   0.000000   0.000000
     9  C   -0.001674  -0.000290   0.000072   0.000547  -0.000469  -0.000017
    10  O   -0.000216   0.000190  -0.000003   0.000008   0.000070   0.000002
    11  C    0.001709   0.003942   0.000324  -0.000085  -0.000980   0.000006
    12  C   -0.000333  -0.006738  -0.000253   0.000094   0.000326  -0.000025
    13  H    0.000015  -0.000297   0.000218   0.000000  -0.000006  -0.000000
    14  H   -0.000001   0.000004  -0.000002  -0.000000  -0.000000   0.000000
    15  H   -0.000030   0.000102  -0.000042  -0.000000   0.000002   0.000000
[...]
    14  H(1)               0.00134       5.96745       2.12933       1.99053
    15  H(1)               0.00583      26.07945       9.30580       8.69917
    16  C(13)              0.01080      12.14684       4.33430       4.05175
    17  H(1)              -0.00001      -0.05254      -0.01875      -0.01753
    18  H(1)              -0.00039      -1.73417      -0.61879      -0.57846
    19  H(1)              -0.00008      -0.37798      -0.13487      -0.12608
    20  C(13)             -0.01383     -15.55136      -5.54911      -5.18737
    21  H(1)               0.00032       1.41165       0.50371       0.47087
    22  H(1)              -0.00003      -0.13336      -0.04759      -0.04448
    23  H(1)               0.00034       1.52187       0.54304       0.50764
    24  H(1)              -0.00145      -6.49917      -2.31907      -2.16789
    25  H(1)              -0.00100      -4.45016      -1.58793      -1.48441
    26  C(13)              0.00456       5.12512       1.82877       1.70956
    27  H(1)              -0.00159      -7.11337      -2.53823      -2.37276
    28  C(13)              0.00294       3.30716       1.18008       1.10315
    29  C(13)             -0.01502     -16.88831      -6.02617      -5.63333
    30  H(1)              -0.00144      -6.42275      -2.29180      -2.14240
    31  H(1)              -0.00023      -1.01443      -0.36197      -0.33838
    32  C(13)              0.00314       3.52456       1.25765       1.17567
    33  H(1)              -0.00015      -0.67664      -0.24144      -0.22570
    34  H(1)              -0.00115      -5.11907      -1.82661      -1.70754
    35  H(1)              -0.00126      -5.63765      -2.01165      -1.88052
    36  H(1)              -0.00078      -3.49025      -1.24541      -1.16422
    37  H(1)               0.00024       1.06458       0.37987       0.35511
    38  O(17)             -0.00114       0.68843       0.24565       0.22964
    39  H(1)               0.00003       0.11243       0.04012       0.03750
 --------------------------------------------------------
       Center         ----  Spin Dipole Couplings  ----
                      3XX-RR        3YY-RR        3ZZ-RR
 --------------------------------------------------------
     1   Atom       -0.150022     -0.142434      0.292456
     2   Atom        0.005341     -0.005678      0.000337
     3   Atom        0.046809      0.040465     -0.087274
     4   Atom       -0.692770     -0.671159      1.363929
     5   Atom       -0.152297     -0.146790      0.299087
     6   Atom       -0.030383     -0.022509      0.052891
     7   Atom        0.098695      0.104468     -0.203163
     8   Atom       -0.011358      0.044538     -0.033180
     9   Atom       -0.109367     -0.120417      0.229784
    10   Atom       -0.372526     -0.426752      0.799278
    11   Atom        0.094606      0.089708     -0.184314
    12   Atom        0.005871      0.000122     -0.005994
    13   Atom        0.000701      0.003308     -0.004009
    14   Atom       -0.002782      0.005762     -0.002981
    15   Atom        0.000538      0.000921     -0.001459
    16   Atom        0.000186     -0.003636      0.003449
    17   Atom       -0.000279     -0.002138      0.002417
    18   Atom       -0.001985     -0.002720      0.004705
    19   Atom        0.001850     -0.001387     -0.000463
    20   Atom        0.005251     -0.003642     -0.001609
    21   Atom        0.000342      0.001904     -0.002246
    22   Atom        0.000647      0.000004     -0.000652
    23   Atom       -0.000286      0.003618     -0.003332
    24   Atom        0.000822     -0.000531     -0.000292
    25   Atom        0.000353      0.001274     -0.001627
    26   Atom        0.018826     -0.019970      0.001144
    27   Atom        0.000465      0.002932     -0.003397
    28   Atom        0.002300     -0.000589     -0.001711
    29   Atom       -0.013449      0.025313     -0.011864
    30   Atom        0.001852     -0.001265     -0.000587
    31   Atom        0.007124     -0.003471     -0.003654
    32   Atom        0.000913     -0.001011      0.000097
    33   Atom        0.000897     -0.000689     -0.000209
    34   Atom        0.000648     -0.000233     -0.000416
    35   Atom        0.000618     -0.000150     -0.000467
    36   Atom        0.001540     -0.001667      0.000127
    37   Atom        0.002092      0.002162     -0.004253
    38   Atom       -0.000018     -0.000799      0.000817
    39   Atom        0.001235     -0.000090     -0.001145
 --------------------------------------------------------
                        XY            XZ            YZ
 --------------------------------------------------------
     1   Atom       -0.039084      0.125688     -0.129074
     2   Atom       -0.003000     -0.002812      0.000124
     3   Atom        0.029166     -0.026621      0.026310
     4   Atom       -0.180591      0.621978     -0.651680
     5   Atom       -0.031123      0.119161     -0.125842
     6   Atom        0.011397      0.070643     -0.004694
     7   Atom        0.034151     -0.090303      0.104296
     8   Atom       -0.011289     -0.024168      0.005844
     9   Atom       -0.022662      0.116619     -0.094725
    10   Atom       -0.127057      0.399343     -0.298659
    11   Atom        0.023661     -0.075045      0.066814
    12   Atom       -0.002869     -0.005064      0.003233
    13   Atom       -0.003922     -0.001623      0.001702
    14   Atom       -0.004064     -0.002825      0.004976
    15   Atom       -0.003489     -0.002100      0.003319
    16   Atom        0.003288     -0.011003     -0.004023
    17   Atom       -0.000793     -0.007514      0.003097
    18   Atom       -0.001103     -0.002615      0.002225
    19   Atom       -0.001569     -0.002838      0.001147
    20   Atom       -0.002265      0.001420      0.008358
    21   Atom        0.000091     -0.001415      0.000222
    22   Atom       -0.000555     -0.000107      0.000087
    23   Atom       -0.004186      0.002528     -0.000376
    24   Atom        0.000692     -0.000392      0.000528
    25   Atom       -0.003523     -0.003054      0.002160
    26   Atom       -0.017194     -0.050683      0.019587
    27   Atom        0.000013     -0.002234     -0.000817
    28   Atom        0.000063      0.000697      0.000199
    29   Atom        0.017530      0.046666     -0.016836
    30   Atom       -0.000622      0.000219      0.000253
    31   Atom       -0.001824      0.001524     -0.000061
    32   Atom       -0.000528      0.000874     -0.000040
    33   Atom       -0.000287      0.000737      0.000149
    34   Atom        0.000214     -0.000151      0.000193
    35   Atom       -0.000119      0.000347      0.000333
    36   Atom       -0.000345      0.001286     -0.000353
    37   Atom        0.007405     -0.000091     -0.000622
    38   Atom       -0.000559      0.000026     -0.000576
    39   Atom        0.001837     -0.000529     -0.000528
 --------------------------------------------------------


 ---------------------------------------------------------------------------------
              Anisotropic Spin Dipole Couplings in Principal Axis System
 ---------------------------------------------------------------------------------

       Atom             a.u.   MegaHertz   Gauss  10(-4) cm-1        Axes

              Baa    -0.1861   -24.970    -8.910    -8.329  0.8589  0.5042 -0.0896
     1 C(13)  Bbb    -0.1756   -23.567    -8.409    -7.861 -0.4475  0.8240  0.3474
              Bcc     0.3617    48.537    17.319    16.190  0.2490 -0.2583  0.9334
 
              Baa    -0.0065    -0.872    -0.311    -0.291  0.2651  0.9598  0.0917
     2 C(13)  Bbb    -0.0007    -0.096    -0.034    -0.032  0.3385 -0.1817  0.9232
              Bcc     0.0072     0.968     0.345     0.323  0.9028 -0.2137 -0.3731
 
              Baa    -0.0996   -13.360    -4.767    -4.457  0.2174 -0.2238  0.9501
     3 C(13)  Bbb     0.0266     3.563     1.271     1.188 -0.6233  0.7173  0.3116
              Bcc     0.0730     9.798     3.496     3.268  0.7512  0.6599 -0.0164
 
              Baa    -0.8665    62.698    22.372    20.914  0.9230 -0.2138 -0.3199
     4 O(17)  Bbb    -0.8615    62.339    22.244    20.794  0.2850  0.9384  0.1952
              Bcc     1.7280  -125.037   -44.616   -41.708  0.2585 -0.2713  0.9271
 
              Baa    -0.1818   -24.399    -8.706    -8.139  0.9686 -0.0270 -0.2471
     5 C(13)  Bbb    -0.1798   -24.133    -8.611    -8.050  0.0864  0.9686  0.2330
              Bcc     0.3617    48.532    17.317    16.188  0.2330 -0.2471  0.9406
 
              Baa    -0.0737     5.331     1.902     1.778  0.8456 -0.2325 -0.4806
     6 O(17)  Bbb    -0.0196     1.419     0.506     0.473  0.1951  0.9725 -0.1271
              Bcc     0.0933    -6.749    -2.408    -2.251  0.4969  0.0137  0.8677
 
              Baa    -0.2610   -35.024   -12.497   -11.683  0.2588 -0.2874  0.9222
     7 C(13)  Bbb     0.1221    16.380     5.845     5.464  0.8931 -0.2926 -0.3418
              Bcc     0.1389    18.644     6.653     6.219  0.3681  0.9120  0.1809
 
              Baa    -0.0488     3.531     1.260     1.178  0.5451  0.0134  0.8383
     8 O(17)  Bbb     0.0006    -0.044    -0.016    -0.015  0.8036  0.2766 -0.5270
              Bcc     0.0482    -3.487    -1.244    -1.163 -0.2390  0.9609  0.1400
 
              Baa    -0.1509   -20.252    -7.226    -6.755  0.6858 -0.6288 -0.3665
     9 C(13)  Bbb    -0.1382   -18.541    -6.616    -6.184  0.6695  0.7425 -0.0210
              Bcc     0.2891    38.792    13.842    12.940  0.2854 -0.2310  0.9302
 
              Baa    -0.5305    38.388    13.698    12.805  0.6997  0.7127 -0.0501
    10 O(17)  Bbb    -0.4652    33.663    12.012    11.229 -0.6520  0.6656  0.3631
              Bcc     0.9957   -72.051   -25.710   -24.034  0.2921 -0.2214  0.9304
 
              Baa    -0.2193   -29.434   -10.503    -9.818  0.2425 -0.2227  0.9442
    11 C(13)  Bbb     0.1022    13.709     4.892     4.573 -0.4310  0.8472  0.3105
              Bcc     0.1172    15.725     5.611     5.245  0.8692  0.4823 -0.1095
 
              Baa    -0.0084    -1.128    -0.403    -0.376  0.2765 -0.2579  0.9258
    12 C(13)  Bbb    -0.0009    -0.127    -0.045    -0.042  0.4541  0.8840  0.1106
              Bcc     0.0094     1.255     0.448     0.419  0.8469 -0.3898 -0.3616
 
              Baa    -0.0046    -2.432    -0.868    -0.811  0.2271 -0.0965  0.9691
    13 H(1)   Bbb    -0.0021    -1.114    -0.398    -0.372  0.7839  0.6085 -0.1232
              Bcc     0.0066     3.547     1.266     1.183 -0.5778  0.7876  0.2139
 
              Baa    -0.0058    -3.113    -1.111    -1.038  0.5459 -0.1615  0.8221
    14 H(1)   Bbb    -0.0041    -2.165    -0.772    -0.722  0.7567  0.5164 -0.4010
              Bcc     0.0099     5.278     1.883     1.760 -0.3598  0.8410  0.4041
 
              Baa    -0.0038    -2.047    -0.730    -0.683 -0.1401 -0.6336  0.7609
    15 H(1)   Bbb    -0.0023    -1.253    -0.447    -0.418  0.7992  0.3813  0.4646
              Bcc     0.0062     3.300     1.177     1.101 -0.5845  0.6732  0.4529
 
              Baa    -0.0093    -1.249    -0.446    -0.417  0.7521  0.0309  0.6583
    16 C(13)  Bbb    -0.0051    -0.688    -0.245    -0.229 -0.2044  0.9606  0.1884
              Bcc     0.0144     1.937     0.691     0.646 -0.6266 -0.2762  0.7288
 
              Baa    -0.0070    -3.737    -1.334    -1.247  0.6941 -0.3026  0.6531
    17 H(1)   Bbb    -0.0024    -1.294    -0.462    -0.432  0.3886  0.9213  0.0138
              Bcc     0.0094     5.031     1.795     1.678 -0.6059  0.2442  0.7571
 
              Baa    -0.0035    -1.888    -0.674    -0.630  0.4798  0.8734 -0.0835
    18 H(1)   Bbb    -0.0027    -1.463    -0.522    -0.488  0.8158 -0.4091  0.4087
              Bcc     0.0063     3.351     1.196     1.118 -0.3228  0.2643  0.9088
 
              Baa    -0.0024    -1.273    -0.454    -0.425  0.4950 -0.1949  0.8467
    19 H(1)   Bbb    -0.0020    -1.079    -0.385    -0.360  0.3728  0.9279 -0.0044
              Bcc     0.0044     2.352     0.839     0.785  0.7849 -0.3178 -0.5320
 
              Baa    -0.0115    -1.538    -0.549    -0.513  0.1559  0.7420 -0.6520
    20 C(13)  Bbb     0.0053     0.710     0.253     0.237  0.7470  0.3432  0.5693
              Bcc     0.0062     0.828     0.295     0.276  0.6462 -0.5758 -0.5008
 
              Baa    -0.0029    -1.538    -0.549    -0.513  0.4026 -0.0501  0.9140
    21 H(1)   Bbb     0.0010     0.515     0.184     0.172  0.9153  0.0066 -0.4028
              Bcc     0.0019     1.022     0.365     0.341  0.0142  0.9987  0.0485
 
              Baa    -0.0007    -0.354    -0.126    -0.118  0.0403 -0.0962  0.9946
    22 H(1)   Bbb    -0.0003    -0.167    -0.060    -0.056  0.5041  0.8614  0.0629
              Bcc     0.0010     0.522     0.186     0.174  0.8627 -0.4988 -0.0832
 
              Baa    -0.0052    -2.785    -0.994    -0.929 -0.6027 -0.2533  0.7567
    23 H(1)   Bbb    -0.0014    -0.726    -0.259    -0.242  0.5700  0.5270  0.6304
              Bcc     0.0066     3.511     1.253     1.171 -0.5584  0.8113 -0.1732
 
              Baa    -0.0013    -0.668    -0.238    -0.223 -0.3557  0.7500 -0.5577
    24 H(1)   Bbb     0.0001     0.063     0.022     0.021 -0.0979  0.5635  0.8203
              Bcc     0.0011     0.605     0.216     0.202  0.9295  0.3464 -0.1270
 
              Baa    -0.0039    -2.075    -0.740    -0.692  0.6467  0.1267  0.7521
    25 H(1)   Bbb    -0.0022    -1.179    -0.421    -0.393  0.4345  0.7493 -0.4998
              Bcc     0.0061     3.254     1.161     1.085 -0.6269  0.6500  0.4295
 
              Baa    -0.0424    -5.693    -2.031    -1.899  0.5790 -0.2372  0.7801
    26 C(13)  Bbb    -0.0265    -3.555    -1.268    -1.186  0.3659  0.9306  0.0114
              Bcc     0.0689     9.248     3.300     3.085  0.7287 -0.2788 -0.6255
 
              Baa    -0.0045    -2.397    -0.855    -0.800  0.4086  0.0991  0.9073
    27 H(1)   Bbb     0.0014     0.752     0.268     0.251  0.8994 -0.2130 -0.3817
              Bcc     0.0031     1.645     0.587     0.549  0.1554  0.9720 -0.1762
 
              Baa    -0.0019    -0.249    -0.089    -0.083 -0.1616 -0.1451  0.9761
    28 C(13)  Bbb    -0.0006    -0.076    -0.027    -0.025 -0.0551  0.9889  0.1379
              Bcc     0.0024     0.325     0.116     0.108  0.9853  0.0315  0.1678
 
              Baa    -0.0658    -8.831    -3.151    -2.946  0.6895 -0.2577 -0.6769
    29 C(13)  Bbb     0.0318     4.262     1.521     1.422  0.0978  0.9591 -0.2656
              Bcc     0.0340     4.569     1.630     1.524  0.7176  0.1169  0.6865
 
              Baa    -0.0015    -0.790    -0.282    -0.263  0.1942  0.9304 -0.3110
    30 H(1)   Bbb    -0.0005    -0.268    -0.096    -0.089 -0.0041  0.3178  0.9482
              Bcc     0.0020     1.058     0.377     0.353  0.9810 -0.1828  0.0656
 
              Baa    -0.0040    -2.140    -0.764    -0.714 -0.2044 -0.6037  0.7706
    31 H(1)   Bbb    -0.0036    -1.933    -0.690    -0.645  0.0441  0.7807  0.6233
              Bcc     0.0076     4.072     1.453     1.358  0.9779 -0.1614  0.1329
 
              Baa    -0.0012    -0.158    -0.056    -0.053  0.3120  0.9320 -0.1846
    32 C(13)  Bbb    -0.0004    -0.050    -0.018    -0.017 -0.4411  0.3142  0.8407
              Bcc     0.0016     0.209     0.074     0.070  0.8415 -0.1809  0.5091
 
              Baa    -0.0009    -0.486    -0.173    -0.162  0.3367  0.7846 -0.5206
    33 H(1)   Bbb    -0.0004    -0.200    -0.071    -0.067 -0.2888  0.6123  0.7360
              Bcc     0.0013     0.685     0.245     0.229  0.8962 -0.0975  0.4327
 
              Baa    -0.0006    -0.313    -0.112    -0.104  0.1954 -0.5588  0.8060
    34 H(1)   Bbb    -0.0001    -0.065    -0.023    -0.022 -0.1092  0.8043  0.5841
              Bcc     0.0007     0.378     0.135     0.126  0.9746  0.2021 -0.0961
 
              Baa    -0.0008    -0.411    -0.147    -0.137 -0.2504 -0.4950  0.8320
    35 H(1)   Bbb     0.0000     0.027     0.009     0.009 -0.1133  0.8685  0.4826
              Bcc     0.0007     0.384     0.137     0.128  0.9615 -0.0265  0.2735
 
              Baa    -0.0017    -0.927    -0.331    -0.309  0.0420  0.9866  0.1576
    36 H(1)   Bbb    -0.0006    -0.331    -0.118    -0.110 -0.5216 -0.1129  0.8457
              Bcc     0.0024     1.258     0.449     0.420  0.8521 -0.1178  0.5099
 
              Baa    -0.0054    -2.882    -1.028    -0.961 -0.6654  0.6773  0.3140
    37 H(1)   Bbb    -0.0041    -2.213    -0.790    -0.738  0.2474 -0.1968  0.9487
              Bcc     0.0096     5.095     1.818     1.700  0.7043  0.7090 -0.0366
 
              Baa    -0.0012     0.088     0.031     0.029  0.4057  0.8808  0.2442
    38 O(17)  Bbb     0.0002    -0.013    -0.004    -0.004  0.8905 -0.3208 -0.3226
              Bcc     0.0010    -0.075    -0.027    -0.025  0.2058 -0.3483  0.9145
 
              Baa    -0.0015    -0.783    -0.280    -0.261 -0.3870  0.7313  0.5616
    39 H(1)   Bbb    -0.0012    -0.640    -0.228    -0.214  0.4586 -0.3758  0.8053
              Bcc     0.0027     1.424     0.508     0.475  0.8000  0.5692 -0.1899
 

 ---------------------------------------------------------------------------------

 Unable to Open any file for archive entry.
 1\1\GINC-P08R01N33\FOpt\UHF\6-31G(d)\C14H20O5(1-,2)\JL3566\26-Oct-2021
 \1\\# HF/6-31G* Opt=(Z-matrix,MaxCycles=100) Geom=PrintInputOrient\\<q
 mtool> simtype="Geometry optimization" </qmtool> Q1H-ACC-O5\\-1,2\C,0,
 -0.2269999981,-1.5310000181,-0.6560000181\C,0,0.2840000093,-2.91199994
 09,-0.9819999933\C,0,-1.6100000143,-1.4620000124,-0.1850000024\O,0,-2.
 3350000381,-2.4830000401,-0.0659999996\C,0,-2.1180000305,-0.1299999952
 ,0.1280000061\O,0,-3.4419999123,0.0240000002,0.5090000033\C,0,-1.32799
 99495,0.9879999757,0.0089999996\O,0,-1.8309999704,2.2200000286,0.38800
 00114\C,0,0.0309999995,0.9350000024,-0.4970000088\O,0,0.7220000029,2.0
 050001144,-0.6690000296\C,0,0.5389999747,-0.3939999938,-0.7929999828\C
 ,0,1.9720000029,-0.4300000072,-1.2539999485\H,0,1.0260000229,-3.260999
 918,-0.2540000081\H,0,-0.5630000234,-3.6010000706,-0.9589999914\H,0,0.
 7549999952,-2.9479999542,-1.9700000286\C,0,-3.7509999275,-0.6349999905
 ,1.7410000563\H,0,-3.5380001068,-1.7020000219,1.6699999571\H,0,-3.1830
 000877,-0.1840000004,2.5659999847\H,0,-4.8179998398,-0.4679999948,1.90
 90000391\C,0,-2.132999897,3.0239999294,-0.75\H,0,-2.9059998989,2.54600
 00038,-1.3650000095\H,0,-2.5150001049,3.9719998837,-0.3610000014\H,0,-
 1.2300000191,3.2000000477,-1.3400000334\H,0,2.1019999981,-1.1749999523
 ,-2.0529999733\H,0,2.2119998932,0.5500000119,-1.6720000505\C,0,2.88899
 9939,-0.7829999924,-0.1150000021\H,0,2.8800001144,-1.8339999914,0.1790
 000051\C,0,3.7630000114,1.5349999666,0.3269999921\C,0,3.6710000038,0.0
 529999994,0.5820000172\H,0,4.6760001183,1.7840000391,-0.2329999954\H,0
 ,2.8849999905,1.9040000439,-0.2070000023\C,0,4.5430002213,-0.460999995
 5,1.6979999542\H,0,4.4499998093,-1.5460000038,1.8140000105\H,0,5.59899
 99771,-0.2240000069,1.5119999647\H,0,4.2769999504,0.0109999999,2.65300
 01163\H,0,3.8210000992,2.0710000992,1.2819999456\H,10,rAH,11,149.65,9,
 180.,0\X,37,1.,10,90.,11,0.,0\O,37,0.9527,38,90.,10,180.,0\H,39,0.9527
 ,37,104.52,38,dih,0\\rAH=1.89060206\dih=26.73024603\\Version=ES64L-G16
 RevC.01\State=2-A\HF=-916.0594133\S2=0.968813\S2-1=0.\S2A=0.787619\RMS
 D=6.197e-09\RMSF=7.942e-03\Dipole=1.0462596,-1.1343512,-0.0820225\Quad
 rupole=-3.8831215,-13.6705099,17.5536313,-11.3169669,-2.1198744,-2.668
 2149\PG=C01 [X(C14H20O5)]\\@
 The archive entry for this job was punched.


 CONTRAIWISE...CONTINUED TWEEDLEDEE, IF IT WAS SO, IT MIGHT BE,
 AND IF IT WERE SO, IT WOULD BE.....
 BUT AS IT ISN'T, IT AIN'T....
 THAT'S LOGIC.....
 ALICE THROUGH THE LOOKING GLASS
 Job cpu time:       0 days  0 hours 39 minutes 10.3 seconds.
 Elapsed time:       0 days  0 hours  9 minutes 52.0 seconds.
 File lengths (MBytes):  RWF=    176 Int=      0 D2E=      0 Chk=     16 Scr=      8
 Normal termination of Gaussian 16 at Tue Oct 26 23:28:33 2021.
