 Entering Gaussian System, Link 0=g16
 Initial command:
 /gpfs/loomis/apps/avx/software/Gaussian/16-C.01_AVX/g16/l1.exe "/home/jl3566/scratch60/g16/Gau-31628.inp" -scrdir="/home/jl3566/scratch60/g16/"
 Entering Link 1 = /gpfs/loomis/apps/avx/software/Gaussian/16-C.01_AVX/g16/l1.exe PID=     31629.
  
 Copyright (c) 1988-2019, Gaussian, Inc.  All Rights Reserved.
  
 This is part of the Gaussian(R) 16 program.  It is based on
 the Gaussian(R) 09 system (copyright 2009, Gaussian, Inc.),
 the Gaussian(R) 03 system (copyright 2003, Gaussian, Inc.),
 the Gaussian(R) 98 system (copyright 1998, Gaussian, Inc.),
 the Gaussian(R) 94 system (copyright 1995, Gaussian, Inc.),
 the Gaussian 92(TM) system (copyright 1992, Gaussian, Inc.),
 the Gaussian 90(TM) system (copyright 1990, Gaussian, Inc.),
 the Gaussian 88(TM) system (copyright 1988, Gaussian, Inc.),
 the Gaussian 86(TM) system (copyright 1986, Carnegie Mellon
 University), and the Gaussian 82(TM) system (copyright 1983,
 Carnegie Mellon University). Gaussian is a federally registered
 trademark of Gaussian, Inc.
  
 This software contains proprietary and confidential information,
 including trade secrets, belonging to Gaussian, Inc.
  
 This software is provided under written license and may be
 used, copied, transmitted, or stored only in accord with that
 written license.
  
 The following legend is applicable only to US Government
 contracts under FAR:
  
                    RESTRICTED RIGHTS LEGEND
  
 Use, reproduction and disclosure by the US Government is
 subject to restrictions as set forth in subparagraphs (a)
 and (c) of the Commercial Computer Software - Restricted
 Rights clause in FAR 52.227-19.
  
 Gaussian, Inc.
 340 Quinnipiac St., Bldg. 40, Wallingford CT 06492
  
  
 ---------------------------------------------------------------
 Warning -- This program may not be used in any manner that
 competes with the business of Gaussian, Inc. or will provide
 assistance to any competitor of Gaussian, Inc.  The licensee
 of this program is prohibited from giving any competitor of
 Gaussian, Inc. access to this program.  By using this program,
 the user acknowledges that Gaussian, Inc. is engaged in the
 business of creating and licensing software in the field of
 computational chemistry and represents and warrants to the
 licensee that it is not a competitor of Gaussian, Inc. and that
 it will not use this program in any manner prohibited above.
 ---------------------------------------------------------------
  

 Cite this work as:
 Gaussian 16, Revision C.01,
 M. J. Frisch, G. W. Trucks, H. B. Schlegel, G. E. Scuseria, 
 M. A. Robb, J. R. Cheeseman, G. Scalmani, V. Barone, 
 G. A. Petersson, H. Nakatsuji, X. Li, M. Caricato, A. V. Marenich, 
 J. Bloino, B. G. Janesko, R. Gomperts, B. Mennucci, H. P. Hratchian, 
 J. V. Ortiz, A. F. Izmaylov, J. L. Sonnenberg, D. Williams-Young, 
 F. Ding, F. Lipparini, F. Egidi, J. Goings, B. Peng, A. Petrone, 
 T. Henderson, D. Ranasinghe, V. G. Zakrzewski, J. Gao, N. Rega, 
 G. Zheng, W. Liang, M. Hada, M. Ehara, K. Toyota, R. Fukuda, 
 J. Hasegawa, M. Ishida, T. Nakajima, Y. Honda, O. Kitao, H. Nakai, 
 T. Vreven, K. Throssell, J. A. Montgomery, Jr., J. E. Peralta, 
 F. Ogliaro, M. J. Bearpark, J. J. Heyd, E. N. Brothers, K. N. Kudin, 
 V. N. Staroverov, T. A. Keith, R. Kobayashi, J. Normand, 
 K. Raghavachari, A. P. Rendell, J. C. Burant, S. S. Iyengar, 
 J. Tomasi, M. Cossi, J. M. Millam, M. Klene, C. Adamo, R. Cammi, 
 J. W. Ochterski, R. L. Martin, K. Morokuma, O. Farkas, 
 J. B. Foresman, and D. J. Fox, Gaussian, Inc., Wallingford CT, 2019.
 
 ******************************************
 Gaussian 16:  ES64L-G16RevC.01  3-Jul-2019
                26-Oct-2021 
 ******************************************
 %chk=Q1H-ACC-O5-120b.chk
 %nproc=4
 Will use up to    4 processors via shared memory.
 %mem=4GB
 --------------------------------------------------------------
 # HF/6-31G* Opt=(Z-matrix,MaxCycles=100) Geom=PrintInputOrient
 --------------------------------------------------------------
 1/6=100,10=7,18=40,38=1/1,3;
 2/9=2000,12=2,17=6,18=5,29=3,40=1/2;
 3/5=1,6=6,7=1,11=9,25=1,30=1,71=1/1,2,3;
 4//1;
 5/5=2,38=5/2;
 6/7=2,8=2,9=2,10=2,28=1/1;
 7/29=1/1,2,3,16;
 1/6=100,10=7,18=40/3(2);
 2/9=2000,29=3/2;
 99//99;
 2/9=2000,29=3/2;
 3/5=1,6=6,7=1,11=9,25=1,30=1,71=1/1,2,3;
 4/5=5,16=3,69=1/1;
 5/5=2,38=5/2;
 7//1,2,3,16;
 1/6=100,18=40/3(-5);
 2/9=2000,29=3/2;
 6/7=2,8=2,9=2,10=2,19=2,28=1/1;
 99/9=1/99;
 ------------------------------------------------------------------
 <qmtool> simtype="Geometry optimization" </qmtool> Q1H-ACC-O5-120b
 ------------------------------------------------------------------
 Symbolic Z-matrix:
 Charge = -1 Multiplicity = 2
 C1                   -0.227    -1.531    -0.656 
 C2                    0.284    -2.912    -0.982 
 C3                   -1.61     -1.462    -0.185 
 O4                   -2.335    -2.483    -0.066 
 C5                   -2.118    -0.13      0.128 
 O6                   -3.442     0.024     0.509 
 C7                   -1.328     0.988     0.009 
 O8                   -1.831     2.22      0.388 
 C9                    0.031     0.935    -0.497 
 O10                   0.722     2.005    -0.669 
 C11                   0.539    -0.394    -0.793 
 C12                   1.972    -0.43     -1.254 
 H13                   1.026    -3.261    -0.254 
 H14                  -0.563    -3.601    -0.959 
 H15                   0.755    -2.948    -1.97 
 C16                  -3.751    -0.635     1.741 
 H17                  -3.538    -1.702     1.67 
 H18                  -3.183    -0.184     2.566 
 H19                  -4.818    -0.468     1.909 
 C20                  -2.133     3.024    -0.75 
 H21                  -2.906     2.546    -1.365 
 H22                  -2.515     3.972    -0.361 
 H23                  -1.23      3.2      -1.34 
 H24                   2.102    -1.175    -2.053 
 H25                   2.212     0.55     -1.672 
 C26                   2.889    -0.783    -0.115 
 H27                   2.88     -1.834     0.179 
 C28                   3.763     1.535     0.327 
 C29                   3.671     0.053     0.582 
 H30                   4.676     1.784    -0.233 
 H31                   2.885     1.904    -0.207 
 C32                   4.543    -0.461     1.698 
 H33                   4.45     -1.546     1.814 
 H34                   5.599    -0.224     1.512 
 H35                   4.277     0.011     2.653 
 H36                   3.821     2.071     1.282 
 H1w                  O10  rAH      C9    120.     C11   0.       0
 x                    H1w   1.       O10   90.      C9    0.       0
 Ow                   H1w   0.9527   x     90.      O10   180.     0
 H2w                  Ow    0.9527   H1w   104.52   x    dih      0
       Variables:
  rAH                   2.                       
  dih                   0.                       
 

 GradGradGradGradGradGradGradGradGradGradGradGradGradGradGradGradGradGrad
 Berny optimization.
 Initialization pass.
                       ----------------------------
                       !    Initial Parameters    !
                       ! (Angstroms and Degrees)  !
 ----------------------                            ----------------------
 !      Name          Value   Derivative information (Atomic Units)     !
 ------------------------------------------------------------------------
 !       rAH         2.0      estimate D2E/DX2                          !
 !       dih         0.0      estimate D2E/DX2                          !
 ------------------------------------------------------------------------
 Trust Radius=3.00D-01 FncErr=1.00D-07 GrdErr=1.00D-07 EigMax=2.50D+02 EigMin=1.00D-04
 Number of steps in this run=    100 maximum allowed number of steps=    100.
 GradGradGradGradGradGradGradGradGradGradGradGradGradGradGradGradGradGrad

 ---------------------------------------------------------------------------------------------------
                            Z-MATRIX (ANGSTROMS AND DEGREES)
   CD    Cent   Atom    N1       Length/X        N2       Alpha/Y        N3        Beta/Z          J
 ---------------------------------------------------------------------------------------------------
      1      1  C        0  -0.227000         -1.531000         -0.656000
      2      2  C        0   0.284000         -2.912000         -0.982000
      3      3  C        0  -1.610000         -1.462000         -0.185000
      4      4  O        0  -2.335000         -2.483000         -0.066000
      5      5  C        0  -2.118000         -0.130000          0.128000
      6      6  O        0  -3.442000          0.024000          0.509000
      7      7  C        0  -1.328000          0.988000          0.009000
      8      8  O        0  -1.831000          2.220000          0.388000
      9      9  C        0   0.031000          0.935000         -0.497000
     10     10  O        0   0.722000          2.005000         -0.669000
     11     11  C        0   0.539000         -0.394000         -0.793000
     12     12  C        0   1.972000         -0.430000         -1.254000
     13     13  H        0   1.026000         -3.261000         -0.254000
     14     14  H        0  -0.563000         -3.601000         -0.959000
     15     15  H        0   0.755000         -2.948000         -1.970000
     16     16  C        0  -3.751000         -0.635000          1.741000
     17     17  H        0  -3.538000         -1.702000          1.670000
     18     18  H        0  -3.183000         -0.184000          2.566000
     19     19  H        0  -4.818000         -0.468000          1.909000
     20     20  C        0  -2.133000          3.024000         -0.750000
     21     21  H        0  -2.906000          2.546000         -1.365000
     22     22  H        0  -2.515000          3.972000         -0.361000
     23     23  H        0  -1.230000          3.200000         -1.340000
     24     24  H        0   2.102000         -1.175000         -2.053000
     25     25  H        0   2.212000          0.550000         -1.672000
     26     26  C        0   2.889000         -0.783000         -0.115000
     27     27  H        0   2.880000         -1.834000          0.179000
     28     28  C        0   3.763000          1.535000          0.327000
     29     29  C        0   3.671000          0.053000          0.582000
     30     30  H        0   4.676000          1.784000         -0.233000
     31     31  H        0   2.885000          1.904000         -0.207000
     32     32  C        0   4.543000         -0.461000          1.698000
     33     33  H        0   4.450000         -1.546000          1.814000
     34     34  H        0   5.599000         -0.224000          1.512000
     35     35  H        0   4.277000          0.011000          2.653000
     36     36  H        0   3.821000          2.071000          1.282000
     37     37  H       10   2.000000(    36)      9  120.000(    74)     11    0.000(   111)      0
     38         X       37   1.000000(    37)     10   90.000(    75)      9    0.000(   112)      0
     39     38  O       37   0.952700(    38)     38   90.000(    76)     10  180.000(   113)      0
     40     39  H       39   0.952700(    39)     37  104.520(    77)     38    0.000(   114)      0
 ---------------------------------------------------------------------------------------------------
                         Z-Matrix orientation:                         
 ---------------------------------------------------------------------
 Center     Atomic      Atomic             Coordinates (Angstroms)
 Number     Number       Type             X           Y           Z
 ---------------------------------------------------------------------
      1          6           0       -0.227000   -1.531000   -0.656000
      2          6           0        0.284000   -2.912000   -0.982000
      3          6           0       -1.610000   -1.462000   -0.185000
      4          8           0       -2.335000   -2.483000   -0.066000
      5          6           0       -2.118000   -0.130000    0.128000
      6          8           0       -3.442000    0.024000    0.509000
      7          6           0       -1.328000    0.988000    0.009000
      8          8           0       -1.831000    2.220000    0.388000
      9          6           0        0.031000    0.935000   -0.497000
     10          8           0        0.722000    2.005000   -0.669000
     11          6           0        0.539000   -0.394000   -0.793000
     12          6           0        1.972000   -0.430000   -1.254000
     13          1           0        1.026000   -3.261000   -0.254000
     14          1           0       -0.563000   -3.601000   -0.959000
     15          1           0        0.755000   -2.948000   -1.970000
     16          6           0       -3.751000   -0.635000    1.741000
     17          1           0       -3.538000   -1.702000    1.670000
     18          1           0       -3.183000   -0.184000    2.566000
     19          1           0       -4.818000   -0.468000    1.909000
     20          6           0       -2.133000    3.024000   -0.750000
     21          1           0       -2.906000    2.546000   -1.365000
     22          1           0       -2.515000    3.972000   -0.361000
     23          1           0       -1.230000    3.200000   -1.340000
     24          1           0        2.102000   -1.175000   -2.053000
     25          1           0        2.212000    0.550000   -1.672000
     26          6           0        2.889000   -0.783000   -0.115000
     27          1           0        2.880000   -1.834000    0.179000
     28          6           0        3.763000    1.535000    0.327000
     29          6           0        3.671000    0.053000    0.582000
     30          1           0        4.676000    1.784000   -0.233000
     31          1           0        2.885000    1.904000   -0.207000
     32          6           0        4.543000   -0.461000    1.698000
     33          1           0        4.450000   -1.546000    1.814000
     34          1           0        5.599000   -0.224000    1.512000
     35          1           0        4.277000    0.011000    2.653000
     36          1           0        3.821000    2.071000    1.282000
     37          1           0        2.589475    1.886699   -1.375074
     38         -1           0        2.507776    0.891262   -1.424376
     39          8           0        3.479047    1.830346   -1.711413
     40          1           0        3.626730    0.898155   -1.841208
 ---------------------------------------------------------------------
                    Distance matrix (angstroms):
                    1          2          3          4          5
     1  C    0.000000
     2  C    1.508164   0.000000
     3  C    1.462632   2.514944   0.000000
     4  O    2.387063   2.807536   1.257866   0.000000
     5  C    2.480592   3.839431   1.459540   2.370935   0.000000
     6  O    3.756524   4.972550   2.458873   2.800201   1.386309
     7  C    2.828389   4.334815   2.473795   3.614902   1.374112
     8  O    4.211028   5.717303   3.732867   4.751667   2.381695
     9  C    2.484552   3.885697   2.921615   4.179287   2.478518
    10  O    3.661157   4.946383   4.206254   5.463607   3.641296
    11  C    1.377786   2.537926   2.475579   3.626614   2.824462
    12  C    2.530890   3.013910   3.877952   4.916951   4.327589
    13  H    2.173594   1.096517   3.192124   3.454989   4.453518
    14  H    2.118869   1.092089   2.504118   2.277577   3.955684
    15  H    2.167674   1.095117   3.314762   3.659172   4.538376
    16  C    4.355112   5.374075   2.996212   2.947102   2.350209
    17  H    4.049968   4.806754   2.686226   2.251858   2.620181
    18  H    4.575328   5.661305   3.416960   3.596099   2.661012
    19  H    5.365303   6.353064   3.957794   3.758476   3.252108
    20  C    4.938593   6.413408   4.551588   5.552991   3.273962
    21  H    4.929670   6.333447   4.374481   5.225350   3.164012
    22  H    5.966991   7.457177   5.511656   6.464244   4.150076
    23  H    4.884284   6.306893   4.817953   5.927950   3.745994
    24  H    2.739085   2.733008   4.165422   5.034481   4.863865
    25  H    3.363263   4.022279   4.568041   5.696800   4.738280
    26  C    3.249868   3.474242   4.550488   5.493867   5.055245
    27  H    3.231483   3.041253   4.520064   5.260936   5.280741
    28  C    5.127060   5.795924   6.173596   7.313301   6.115389
    29  C    4.385898   4.765406   5.547294   6.551583   5.809658
    30  H    5.933596   6.473259   7.074787   8.209099   7.067684
    31  H    4.656755   5.528081   5.615645   6.820121   5.411043
    32  C    5.425783   5.597221   6.512074   7.382890   6.851524
    33  H    5.289183   5.199916   6.381744   7.102717   6.927213
    34  H    6.352224   6.457136   7.508804   8.398900   7.840688
    35  H    5.797694   6.140131   6.699309   7.571759   6.876884
    36  H    5.754698   6.516621   6.643037   7.775111   6.438000
    37  H    4.486677   5.338280   5.501423   6.712556   5.337287
    38  X    3.733196   4.427830   4.902038   6.056675   4.985043
    39  O    5.113446   5.764566   6.250430   7.423980   6.209133
    40  H    4.707095   5.140950   5.978018   7.079957   6.159286
                    6          7          8          9         10
     6  O    0.000000
     7  C    2.376614   0.000000
     8  O    2.726239   1.383645   0.000000
     9  C    3.728765   1.451112   2.429299   0.000000
    10  O    4.759300   2.386729   2.771513   1.285288   0.000000
    11  C    4.209310   2.457400   3.720841   1.453245   2.409163
    12  C    5.711889   3.807347   4.917466   2.490734   2.798920
    13  H    5.597894   4.864616   6.214175   4.319200   5.291068
    14  H    4.856366   4.751965   6.107886   4.597997   5.758695
    15  H    5.709031   4.873133   6.241457   4.215637   5.121123
    16  C    1.430939   3.391885   3.697030   4.666591   5.725856
    17  H    2.082358   3.857346   4.465362   4.938362   6.112313
    18  H    2.083649   3.369400   3.514371   4.578638   5.523221
    19  H    2.023719   4.232025   4.296621   5.591963   6.591920
    20  C    3.506931   2.317197   1.425715   3.018414   3.032482
    21  H    3.187422   2.608702   2.082045   3.460450   3.733561
    22  H    4.147642   3.232665   2.024441   3.965348   3.800279
    23  H    4.289373   2.592749   2.075472   2.725985   2.385072
    24  H    6.223936   4.549210   5.740470   3.340999   3.732594
    25  H    6.082857   3.943248   4.835116   2.507112   2.311522
    26  C    6.412658   4.575468   5.616887   3.356428   3.574318
    27  H    6.597632   5.069502   6.218691   4.030030   4.484862
    28  C    7.363985   5.130167   5.636114   3.868695   3.234285
    29  C    7.113434   5.117866   5.916547   3.897661   3.751254
    30  H    8.339670   6.061369   6.551091   4.729326   3.984100
    31  H    6.639125   4.316837   4.763878   3.027933   2.214094
    32  C    8.087594   6.278612   7.037879   5.208165   5.126781
    33  H    8.151784   6.562352   7.461045   5.569887   5.716019
    34  H    9.099846   7.191056   7.901988   6.031748   5.788811
    35  H    8.011234   6.273858   6.878777   5.367010   5.258303
    36  H    7.585440   5.413467   5.724207   4.338138   3.662589
    37  H    6.587722   4.250874   4.770757   2.867497   2.000000
    38  X    6.315846   4.095986   4.886228   2.645063   2.236068
    39  O    7.489594   5.174656   5.723283   3.763705   2.952700
    40  H    7.500304   5.289678   6.041809   3.838948   3.322143
                   11         12         13         14         15
    11  C    0.000000
    12  C    1.505758   0.000000
    13  H    2.957597   3.147932   0.000000
    14  H    3.395116   4.070441   1.771312   0.000000
    15  H    2.820443   2.886879   1.765238   1.784840   0.000000
    16  C    4.988320   6.462567   5.804794   5.123524   6.278975
    17  H    4.939551   6.366150   5.192529   4.400962   5.764717
    18  H    5.017994   6.420821   5.927564   5.564703   6.612325
    19  H    6.000311   7.490668   6.828745   6.012166   7.228787
    20  C    4.338681   5.388428   7.051703   6.811696   6.744904
    21  H    4.564954   5.715224   7.100436   6.590910   6.629704
    22  H    5.345605   6.348876   8.053969   7.843356   7.821009
    23  H    4.042945   4.841188   6.929174   6.844242   6.491150
    24  H    2.154189   1.100148   2.957291   3.766237   2.228189
    25  H    2.112512   1.092119   4.235687   5.043788   3.801007
    26  C    2.476591   1.504267   3.103317   4.535390   3.561208
    27  H    2.915247   2.202083   2.379314   4.033805   3.220997
    28  C    3.920410   3.093294   5.552508   6.837146   5.866989
    29  C    3.449617   2.547702   4.321749   5.801134   4.901200
    30  H    4.708721   3.640859   6.226955   7.548008   6.386175
    31  H    3.335853   2.716125   5.489564   6.539055   5.584530
    32  C    4.716099   3.914755   4.900979   6.556713   5.829952
    33  H    4.839367   4.098605   4.352198   6.086273   5.471497
    34  H    5.562870   4.565996   5.766667   7.448504   6.558112
    35  H    5.100155   4.557648   5.452122   7.036952   6.521679
    36  H    4.599280   4.013116   6.213014   7.510867   6.720582
    37  H    3.121674   2.400631   5.495459   6.342402   5.205146
    38  X    2.434463   1.435903   4.561438   5.461379   4.255568
    39  O    3.799352   2.754920   5.836377   6.812033   5.506350
    40  H    3.507489   2.201577   5.155734   6.210839   4.801700
                   16         17         18         19         20
    16  C    0.000000
    17  H    1.090366   0.000000
    18  H    1.098476   1.798100   0.000000
    19  H    1.092978   1.793956   1.784805   0.000000
    20  C    4.712885   5.492313   4.731767   5.145247   0.000000
    21  H    4.525486   5.258912   4.793995   4.843451   1.097378
    22  H    5.212538   6.112754   5.126976   5.492750   1.093595
    23  H    5.527678   6.198110   5.524717   6.073217   1.092925
    24  H    6.995973   6.778500   7.088615   8.005229   6.104476
    25  H    6.972099   7.021607   6.899668   7.954922   5.084268
    26  C    6.896103   6.733284   6.664514   7.974562   6.333795
    27  H    6.917196   6.590238   6.721625   8.007375   7.042256
    28  C    7.947861   8.098544   7.497666   8.952558   6.175748
    29  C    7.543388   7.498897   7.139310   8.607874   6.654884
    30  H    8.986800   9.123782   8.571541   9.989780   6.940272
    31  H    7.367341   7.601401   6.990701   8.333069   5.170065
    32  C    8.295937   8.175783   7.779539   9.363380   7.918769
    33  H    8.251766   7.990821   7.789945   9.330966   8.413969
    34  H    9.361830   9.257117   8.845114  10.427417   8.686194
    35  H    8.105421   8.060700   7.463055   9.137943   7.857905
    36  H    8.054086   8.278947   7.469250   9.026183   6.362967
    37  H    7.501367   7.726396   7.289810   8.438035   4.897545
    38  X    7.177838   7.269909   7.033080   8.162474   5.151713
    39  O    8.382760   8.552799   8.169255   9.339742   5.817576
    40  H    8.343481   8.391826   8.183335   9.340444   6.235739
                   21         22         23         24         25
    21  H    0.000000
    22  H    1.787281   0.000000
    23  H    1.799254   1.790433   0.000000
    24  H    6.276882   7.118368   5.545378   0.000000
    25  H    5.502017   5.981081   4.356614   1.769996   0.000000
    26  C    6.799027   7.202344   5.859273   2.128116   2.158580
    27  H    7.419308   7.944008   6.673876   2.453852   3.091259
    28  C    6.954175   6.769461   5.520975   3.970821   2.715111
    29  C    7.298136   7.383387   6.133310   3.303478   2.730606
    30  H    7.703817   7.517593   6.173438   4.323605   3.108822
    31  H    5.940438   5.784491   4.460553   3.674377   2.105343
    32  C    8.597187   8.585240   7.480635   4.531918   4.220496
    33  H    8.997846   9.148233   8.045783   4.539211   4.642635
    34  H    9.396013   9.324781   8.154319   5.083565   4.712611
    35  H    8.611971   8.420510   7.512711   5.318238   4.822901
    36  H    7.244637   6.816021   5.801907   4.961220   3.691672
    37  H    5.534892   5.606469   4.039106   3.173518   1.420358
    38  X    5.661329   5.987486   4.394128   2.197558   0.515035
    39  O    6.434360   6.506835   4.918234   3.323409   1.801735
    40  H    6.754163   7.025694   5.397918   2.582175   1.466732
                   26         27         28         29         30
    26  C    0.000000
    27  H    1.091384   0.000000
    28  C    2.516419   3.485937   0.000000
    29  C    1.340235   2.085392   1.506590   0.000000
    30  H    3.129981   4.060207   1.099623   2.161160   0.000000
    31  H    2.688578   3.757880   1.091880   2.160213   1.795204
    32  C    2.475150   2.637813   2.544024   1.506664   2.964199
    33  H    2.596138   2.284966   3.489369   2.163669   3.915378
    34  H    3.209939   3.429570   2.805210   2.158428   2.815851
    35  H    3.196687   3.387670   2.827905   2.158250   3.410532
    36  H    3.311427   4.165467   1.096670   2.141220   1.763128
    37  H    2.967288   4.042667   2.097119   2.891762   2.380854
    38  X    2.159387   3.183774   2.248845   2.466033   2.630124
    39  O    3.118697   4.166528   2.079179   2.907843   1.902774
    40  H    2.519985   3.479011   2.263906   2.566746   2.114716
                   31         32         33         34         35
    31  H    0.000000
    32  C    3.459944   0.000000
    33  H    4.293736   1.095139   0.000000
    34  H    3.853458   1.098135   1.777383   0.000000
    35  H    3.701448   1.097982   1.777104   1.762042   0.000000
    36  H    1.766665   2.665589   3.709630   2.912252   2.516183
    37  H    1.205003   4.332636   5.041346   4.674130   4.753038
    38  X    1.627864   3.964843   4.494392   4.407015   4.531006
    39  O    1.619128   4.243390   4.977047   4.370919   4.795295
    40  H    2.057310   3.900365   4.473502   4.048838   4.626857
                   36         37         38         39         40
    36  H    0.000000
    37  H    2.934393   0.000000
    38  X    3.231224   1.000000   0.000000
    39  O    3.022477   0.952700   1.381172   0.000000
    40  H    3.341816   1.506783   1.194092   0.952700   0.000000
 Stoichiometry    C14H20O5(1-,2)
 Framework group  C1[X(C14H20O5)]
 Deg. of freedom   111
 Full point group                 C1      NOp   1
 Largest Abelian subgroup         C1      NOp   1
 Largest concise Abelian subgroup C1      NOp   1
                         Standard orientation:                         
 ---------------------------------------------------------------------
 Center     Atomic      Atomic             Coordinates (Angstroms)
 Number     Number       Type             X           Y           Z
 ---------------------------------------------------------------------
      1          6           0       -0.578765   -1.547785   -0.709501
      2          6           0       -0.177913   -2.939912   -1.128855
      3          6           0       -1.976846   -1.383579   -0.312390
      4          8           0       -2.799400   -2.335127   -0.326171
      5          6           0       -2.378417   -0.039247    0.089813
      6          8           0       -3.704219    0.211028    0.408351
      7          6           0       -1.482298    1.002133    0.115929
      8          8           0       -1.892402    2.241274    0.575078
      9          6           0       -0.104332    0.859079   -0.315896
     10          8           0        0.692382    1.866989   -0.352329
     11          6           0        0.296424   -0.483705   -0.700925
     12          6           0        1.746598   -0.620916   -1.082335
     13          1           0        0.480243   -3.419654   -0.394671
     14          1           0       -1.084782   -3.542240   -1.215170
     15          1           0        0.350274   -2.938809   -2.088177
     16          6           0       -4.151468   -0.515596    1.557078
     17          1           0       -4.034042   -1.588580    1.402757
     18          1           0       -3.598376   -0.193124    2.449687
     19          1           0       -5.207009   -0.259703    1.679364
     20          6           0       -2.044879    3.163574   -0.501388
     21          1           0       -2.817665    2.816766   -1.199072
     22          1           0       -2.361690    4.108407   -0.050977
     23          1           0       -1.093406    3.299263   -1.021747
     24          1           0        1.858169   -1.305397   -1.936362
     25          1           0        2.102671    0.362499   -1.396710
     26          6           0        2.551844   -1.156221    0.069987
     27          1           0        2.426699   -2.222239    0.267626
     28          6           0        3.606455    1.019878    0.766231
     29          6           0        3.361445   -0.462156    0.881807
     30          1           0        4.572693    1.224464    0.282808
     31          1           0        2.802544    1.516484    0.219139
     32          6           0        4.108552   -1.150788    1.994306
     33          1           0        3.908238   -2.227374    2.007191
     34          1           0        5.191722   -1.003463    1.889719
     35          1           0        3.826544   -0.736812    2.971373
     36          1           0        3.652308    1.465626    1.767176
     37          1           0        2.582400    1.626220   -0.960491
     38          8           0        3.482710    1.511530   -1.250189
     39          1           0        3.551496    0.583552   -1.454550
 ---------------------------------------------------------------------
 Rotational constants (GHZ):           0.5413844           0.2469296           0.1997202
 Standard basis: 6-31G(d) (6D, 7F)
 There are   325 symmetry adapted cartesian basis functions of A   symmetry.
 There are   325 symmetry adapted basis functions of A   symmetry.
   325 basis functions,   612 primitive gaussians,   325 cartesian basis functions
    73 alpha electrons       72 beta electrons
       nuclear repulsion energy      1535.3738047632 Hartrees.
 NAtoms=   39 NActive=   39 NUniq=   39 SFac= 1.00D+00 NAtFMM=   60 NAOKFM=F Big=F
 Integral buffers will be    131072 words long.
 Raffenetti 2 integral format.
 Two-electron integral symmetry is turned on.
 One-electron integrals computed using PRISM.
 NBasis=   325 RedAO= T EigKep=  3.01D-04  NBF=   325
 NBsUse=   325 1.00D-06 EigRej= -1.00D+00 NBFU=   325
 ExpMin= 1.61D-01 ExpMax= 5.48D+03 ExpMxC= 8.25D+02 IAcc=3 IRadAn=         5 AccDes= 0.00D+00
 Harris functional with IExCor=  205 and IRadAn=       5 diagonalized for initial guess.
 HarFok:  IExCor=  205 AccDes= 0.00D+00 IRadAn=         5 IDoV= 1 UseB2=F ITyADJ=14
 ICtDFT=  3500011 ScaDFX=  1.000000  1.000000  1.000000  1.000000
 FoFCou: FMM=F IPFlag=           0 FMFlag=      100000 FMFlg1=           0
         NFxFlg=           0 DoJE=T BraDBF=F KetDBF=T FulRan=T
         wScrn=  0.000000 ICntrl=       500 IOpCl=  0 I1Cent=   200000004 NGrid=           0
         NMat0=    1 NMatS0=      1 NMatT0=    0 NMatD0=    1 NMtDS0=    0 NMtDT0=    0
 Petite list used in FoFCou.
 Initial guess <Sx>= 0.0000 <Sy>= 0.0000 <Sz>= 0.5000 <S**2>= 0.7500 S= 0.5000
 Requested convergence on RMS density matrix=1.00D-08 within 128 cycles.
 Requested convergence on MAX density matrix=1.00D-06.
 Requested convergence on             energy=1.00D-06.
 No special actions if energy rises.
 Integral accuracy reduced to 1.0D-05 until final iterations.
 Initial convergence to 1.0D-05 achieved.  Increase integral accuracy.
 Restarting incremental Fock formation.
 SCF Done:  E(UHF) =  -915.914720457     A.U. after   38 cycles
            NFock= 38  Conv=0.42D-08     -V/T= 2.0011
 <Sx>= 0.0000 <Sy>= 0.0000 <Sz>= 0.5000 <S**2>= 0.9628 S= 0.6013
 <L.S>=  0.00000000000    
 Annihilation of the first spin contaminant:
 S**2 before annihilation     0.9628,   after     0.7849

 **********************************************************************

            Population analysis using the SCF Density.

 **********************************************************************

 Orbital symmetries:
 Alpha Orbitals:
       Occupied  (A) (A) (A) (A) (A) (A) (A) (A) (A) (A) (A) (A)
                 (A) (A) (A) (A) (A) (A) (A) (A) (A) (A) (A) (A)
                 (A) (A) (A) (A) (A) (A) (A) (A) (A) (A) (A) (A)
                 (A) (A) (A) (A) (A) (A) (A) (A) (A) (A) (A) (A)
                 (A) (A) (A) (A) (A) (A) (A) (A) (A) (A) (A) (A)
                 (A) (A) (A) (A) (A) (A) (A) (A) (A) (A) (A) (A)
                 (A)
       Virtual   (A) (A) (A) (A) (A) (A) (A) (A) (A) (A) (A) (A)
                 (A) (A) (A) (A) (A) (A) (A) (A) (A) (A) (A) (A)
                 (A) (A) (A) (A) (A) (A) (A) (A) (A) (A) (A) (A)
                 (A) (A) (A) (A) (A) (A) (A) (A) (A) (A) (A) (A)
                 (A) (A) (A) (A) (A) (A) (A) (A) (A) (A) (A) (A)
                 (A) (A) (A) (A) (A) (A) (A) (A) (A) (A) (A) (A)
                 (A) (A) (A) (A) (A) (A) (A) (A) (A) (A) (A) (A)
                 (A) (A) (A) (A) (A) (A) (A) (A) (A) (A) (A) (A)
                 (A) (A) (A) (A) (A) (A) (A) (A) (A) (A) (A) (A)
                 (A) (A) (A) (A) (A) (A) (A) (A) (A) (A) (A) (A)
                 (A) (A) (A) (A) (A) (A) (A) (A) (A) (A) (A) (A)
                 (A) (A) (A) (A) (A) (A) (A) (A) (A) (A) (A) (A)
                 (A) (A) (A) (A) (A) (A) (A) (A) (A) (A) (A) (A)
                 (A) (A) (A) (A) (A) (A) (A) (A) (A) (A) (A) (A)
                 (A) (A) (A) (A) (A) (A) (A) (A) (A) (A) (A) (A)
                 (A) (A) (A) (A) (A) (A) (A) (A) (A) (A) (A) (A)
                 (A) (A) (A) (A) (A) (A) (A) (A) (A) (A) (A) (A)
                 (A) (A) (A) (A) (A) (A) (A) (A) (A) (A) (A) (A)
                 (A) (A) (A) (A) (A) (A) (A) (A) (A) (A) (A) (A)
                 (A) (A) (A) (A) (A) (A) (A) (A) (A) (A) (A) (A)
                 (A) (A) (A) (A) (A) (A) (A) (A) (A) (A) (A) (A)
 Beta  Orbitals:
       Occupied  (A) (A) (A) (A) (A) (A) (A) (A) (A) (A) (A) (A)
                 (A) (A) (A) (A) (A) (A) (A) (A) (A) (A) (A) (A)
                 (A) (A) (A) (A) (A) (A) (A) (A) (A) (A) (A) (A)
                 (A) (A) (A) (A) (A) (A) (A) (A) (A) (A) (A) (A)
                 (A) (A) (A) (A) (A) (A) (A) (A) (A) (A) (A) (A)
                 (A) (A) (A) (A) (A) (A) (A) (A) (A) (A) (A) (A)
       Virtual   (A) (A) (A) (A) (A) (A) (A) (A) (A) (A) (A) (A)
                 (A) (A) (A) (A) (A) (A) (A) (A) (A) (A) (A) (A)
                 (A) (A) (A) (A) (A) (A) (A) (A) (A) (A) (A) (A)
                 (A) (A) (A) (A) (A) (A) (A) (A) (A) (A) (A) (A)
                 (A) (A) (A) (A) (A) (A) (A) (A) (A) (A) (A) (A)
                 (A) (A) (A) (A) (A) (A) (A) (A) (A) (A) (A) (A)
                 (A) (A) (A) (A) (A) (A) (A) (A) (A) (A) (A) (A)
                 (A) (A) (A) (A) (A) (A) (A) (A) (A) (A) (A) (A)
                 (A) (A) (A) (A) (A) (A) (A) (A) (A) (A) (A) (A)
                 (A) (A) (A) (A) (A) (A) (A) (A) (A) (A) (A) (A)
                 (A) (A) (A) (A) (A) (A) (A) (A) (A) (A) (A) (A)
                 (A) (A) (A) (A) (A) (A) (A) (A) (A) (A) (A) (A)
                 (A) (A) (A) (A) (A) (A) (A) (A) (A) (A) (A) (A)
                 (A) (A) (A) (A) (A) (A) (A) (A) (A) (A) (A) (A)
                 (A) (A) (A) (A) (A) (A) (A) (A) (A) (A) (A) (A)
                 (A) (A) (A) (A) (A) (A) (A) (A) (A) (A) (A) (A)
                 (A) (A) (A) (A) (A) (A) (A) (A) (A) (A) (A) (A)
                 (A) (A) (A) (A) (A) (A) (A) (A) (A) (A) (A) (A)
                 (A) (A) (A) (A) (A) (A) (A) (A) (A) (A) (A) (A)
                 (A) (A) (A) (A) (A) (A) (A) (A) (A) (A) (A) (A)
                 (A) (A) (A) (A) (A) (A) (A) (A) (A) (A) (A) (A)
                 (A)
 The electronic state is 2-A.
 Alpha  occ. eigenvalues --  -20.44826 -20.43653 -20.41874 -20.40487 -20.35868
 Alpha  occ. eigenvalues --  -11.16272 -11.15529 -11.15285 -11.14493 -11.14185
 Alpha  occ. eigenvalues --  -11.13622 -11.12033 -11.11779 -11.10851 -11.10634
 Alpha  occ. eigenvalues --  -11.10129 -11.10028 -11.09228 -11.06908  -1.27008
 Alpha  occ. eigenvalues --   -1.24628  -1.24453  -1.23127  -1.17300  -0.99981
 Alpha  occ. eigenvalues --   -0.97447  -0.91603  -0.88809  -0.83339  -0.81937
 Alpha  occ. eigenvalues --   -0.81523  -0.79259  -0.76258  -0.74603  -0.64904
 Alpha  occ. eigenvalues --   -0.64664  -0.62173  -0.60317  -0.57251  -0.54533
 Alpha  occ. eigenvalues --   -0.53550  -0.52513  -0.51551  -0.49946  -0.49029
 Alpha  occ. eigenvalues --   -0.48786  -0.48507  -0.48334  -0.47142  -0.46964
 Alpha  occ. eigenvalues --   -0.45887  -0.44916  -0.43743  -0.43662  -0.42556
 Alpha  occ. eigenvalues --   -0.41416  -0.40489  -0.39995  -0.39939  -0.39157
 Alpha  occ. eigenvalues --   -0.38261  -0.37483  -0.36702  -0.34502  -0.33798
 Alpha  occ. eigenvalues --   -0.31380  -0.28325  -0.28039  -0.27328  -0.25213
 Alpha  occ. eigenvalues --   -0.21803  -0.19340  -0.11002
 Alpha virt. eigenvalues --    0.27455   0.30382   0.32228   0.33844   0.35594
 Alpha virt. eigenvalues --    0.37483   0.38055   0.39125   0.39435   0.40724
 Alpha virt. eigenvalues --    0.41654   0.42188   0.42716   0.43800   0.44055
 Alpha virt. eigenvalues --    0.44350   0.44797   0.46018   0.46131   0.46756
 Alpha virt. eigenvalues --    0.47074   0.49088   0.50638   0.50823   0.51465
 Alpha virt. eigenvalues --    0.53188   0.54133   0.56280   0.57469   0.60078
 Alpha virt. eigenvalues --    0.62397   0.64074   0.65287   0.66052   0.67631
 Alpha virt. eigenvalues --    0.70790   0.73454   0.75057   0.75243   0.76485
 Alpha virt. eigenvalues --    0.80435   0.82258   0.83760   0.84798   0.86426
 Alpha virt. eigenvalues --    0.87528   0.87941   0.88717   0.88857   0.89624
 Alpha virt. eigenvalues --    0.90418   0.91270   0.91844   0.93562   0.94673
 Alpha virt. eigenvalues --    0.95545   0.97168   0.97573   0.98863   1.00132
 Alpha virt. eigenvalues --    1.02174   1.03370   1.05661   1.06297   1.07446
 Alpha virt. eigenvalues --    1.07995   1.09177   1.10076   1.10845   1.11456
 Alpha virt. eigenvalues --    1.11768   1.13146   1.14699   1.16365   1.16750
 Alpha virt. eigenvalues --    1.18868   1.19594   1.21429   1.22772   1.23424
 Alpha virt. eigenvalues --    1.23886   1.24338   1.24769   1.25545   1.25920
 Alpha virt. eigenvalues --    1.26516   1.27237   1.28131   1.28997   1.29506
 Alpha virt. eigenvalues --    1.30386   1.30762   1.31311   1.32176   1.32435
 Alpha virt. eigenvalues --    1.33484   1.34232   1.34931   1.35536   1.37940
 Alpha virt. eigenvalues --    1.38112   1.39882   1.41211   1.41535   1.42583
 Alpha virt. eigenvalues --    1.44333   1.46616   1.47668   1.49295   1.51031
 Alpha virt. eigenvalues --    1.51866   1.53098   1.53914   1.55395   1.57144
 Alpha virt. eigenvalues --    1.59647   1.59830   1.60320   1.62184   1.63029
 Alpha virt. eigenvalues --    1.64537   1.66378   1.67193   1.71209   1.72302
 Alpha virt. eigenvalues --    1.73302   1.75376   1.77748   1.78627   1.79022
 Alpha virt. eigenvalues --    1.80172   1.82833   1.84395   1.85167   1.86555
 Alpha virt. eigenvalues --    1.88491   1.89290   1.89949   1.93439   1.97615
 Alpha virt. eigenvalues --    1.98821   2.03028   2.04812   2.08610   2.10500
 Alpha virt. eigenvalues --    2.13659   2.13811   2.16425   2.17107   2.18999
 Alpha virt. eigenvalues --    2.19456   2.20775   2.20954   2.22553   2.24247
 Alpha virt. eigenvalues --    2.25415   2.26658   2.27226   2.29293   2.30036
 Alpha virt. eigenvalues --    2.31486   2.31919   2.33579   2.34418   2.36134
 Alpha virt. eigenvalues --    2.37317   2.39078   2.39653   2.41503   2.41842
 Alpha virt. eigenvalues --    2.44982   2.47208   2.48040   2.50042   2.51262
 Alpha virt. eigenvalues --    2.52564   2.53737   2.54812   2.56692   2.57771
 Alpha virt. eigenvalues --    2.58821   2.60230   2.60845   2.63266   2.65247
 Alpha virt. eigenvalues --    2.67012   2.68290   2.69976   2.70945   2.71410
 Alpha virt. eigenvalues --    2.73206   2.74069   2.74209   2.76967   2.79238
 Alpha virt. eigenvalues --    2.80670   2.82154   2.83602   2.84331   2.85911
 Alpha virt. eigenvalues --    2.86786   2.88905   2.89574   2.92338   2.93213
 Alpha virt. eigenvalues --    2.95380   2.96457   3.00589   3.00657   3.03628
 Alpha virt. eigenvalues --    3.04961   3.07673   3.09331   3.12480   3.13598
 Alpha virt. eigenvalues --    3.15312   3.15964   3.19398   3.23228   3.26290
 Alpha virt. eigenvalues --    3.31055   3.31958   3.38724   3.41487   3.46315
 Alpha virt. eigenvalues --    3.46850   3.51791   3.54390   3.55144   3.58275
 Alpha virt. eigenvalues --    3.61577   3.85890   3.93100   4.37659   4.45228
 Alpha virt. eigenvalues --    4.55091   4.63909   4.68487   4.74420   4.76464
 Alpha virt. eigenvalues --    4.77729   4.80654   4.81906   4.86627   4.91729
 Alpha virt. eigenvalues --    4.94466   5.00298   5.06720   5.15139   5.23347
 Alpha virt. eigenvalues --    5.36361   5.81765
  Beta  occ. eigenvalues --  -20.44803 -20.43651 -20.40494 -20.39825 -20.34660
  Beta  occ. eigenvalues --  -11.16738 -11.15488 -11.14544 -11.14474 -11.14288
  Beta  occ. eigenvalues --  -11.13537 -11.12028 -11.11849 -11.10603 -11.10259
  Beta  occ. eigenvalues --  -11.10027 -11.09979 -11.09803 -11.06900  -1.26590
  Beta  occ. eigenvalues --   -1.24505  -1.24234  -1.19136  -1.14633  -0.99502
  Beta  occ. eigenvalues --   -0.96828  -0.91359  -0.88095  -0.82809  -0.81894
  Beta  occ. eigenvalues --   -0.81606  -0.78861  -0.75173  -0.73954  -0.64460
  Beta  occ. eigenvalues --   -0.63903  -0.62102  -0.60297  -0.57148  -0.54127
  Beta  occ. eigenvalues --   -0.53128  -0.52392  -0.50822  -0.49649  -0.48899
  Beta  occ. eigenvalues --   -0.48770  -0.48492  -0.47876  -0.47144  -0.45795
  Beta  occ. eigenvalues --   -0.44762  -0.44167  -0.43537  -0.42422  -0.41244
  Beta  occ. eigenvalues --   -0.40346  -0.39767  -0.39197  -0.38413  -0.37960
  Beta  occ. eigenvalues --   -0.37065  -0.35658  -0.34336  -0.33065  -0.31513
  Beta  occ. eigenvalues --   -0.30171  -0.27323  -0.26520  -0.24468  -0.21960
  Beta  occ. eigenvalues --   -0.18636  -0.18205
  Beta virt. eigenvalues --    0.20562   0.29612   0.31917   0.34042   0.35545
  Beta virt. eigenvalues --    0.37029   0.37854   0.38255   0.39612   0.40206
  Beta virt. eigenvalues --    0.40993   0.41906   0.42184   0.42827   0.43831
  Beta virt. eigenvalues --    0.44119   0.44370   0.44825   0.46267   0.46341
  Beta virt. eigenvalues --    0.46925   0.47321   0.49339   0.51131   0.51425
  Beta virt. eigenvalues --    0.51572   0.53582   0.54593   0.56403   0.58177
  Beta virt. eigenvalues --    0.60491   0.62949   0.64351   0.65452   0.66289
  Beta virt. eigenvalues --    0.68259   0.70955   0.73586   0.74867   0.75780
  Beta virt. eigenvalues --    0.77051   0.80582   0.82727   0.84301   0.84813
  Beta virt. eigenvalues --    0.86499   0.87717   0.88641   0.88838   0.89193
  Beta virt. eigenvalues --    0.89781   0.90522   0.91557   0.91870   0.93785
  Beta virt. eigenvalues --    0.94580   0.95830   0.97184   0.97773   0.98656
  Beta virt. eigenvalues --    0.99910   1.02707   1.03933   1.05730   1.06622
  Beta virt. eigenvalues --    1.07393   1.08536   1.09273   1.10527   1.11251
  Beta virt. eigenvalues --    1.11668   1.12068   1.13518   1.15376   1.16736
  Beta virt. eigenvalues --    1.17168   1.18869   1.19881   1.21499   1.22807
  Beta virt. eigenvalues --    1.23630   1.23970   1.24575   1.24771   1.25673
  Beta virt. eigenvalues --    1.25931   1.26636   1.27482   1.28253   1.29260
  Beta virt. eigenvalues --    1.29543   1.30585   1.30904   1.31413   1.32251
  Beta virt. eigenvalues --    1.32671   1.33623   1.34646   1.35130   1.35681
  Beta virt. eigenvalues --    1.38092   1.38408   1.40063   1.41575   1.41874
  Beta virt. eigenvalues --    1.43099   1.44500   1.47919   1.49747   1.51013
  Beta virt. eigenvalues --    1.51388   1.52698   1.54025   1.54798   1.56000
  Beta virt. eigenvalues --    1.57671   1.59922   1.60423   1.60792   1.62402
  Beta virt. eigenvalues --    1.63539   1.65158   1.66961   1.67786   1.71335
  Beta virt. eigenvalues --    1.73350   1.73700   1.75424   1.77893   1.79294
  Beta virt. eigenvalues --    1.79867   1.81014   1.83234   1.84706   1.85214
  Beta virt. eigenvalues --    1.86786   1.88651   1.89523   1.90309   1.93529
  Beta virt. eigenvalues --    1.97844   1.99053   2.03456   2.05143   2.08795
  Beta virt. eigenvalues --    2.10975   2.13984   2.14198   2.16935   2.17627
  Beta virt. eigenvalues --    2.19415   2.19631   2.21152   2.21623   2.22779
  Beta virt. eigenvalues --    2.24749   2.25884   2.27389   2.27848   2.29758
  Beta virt. eigenvalues --    2.30709   2.31620   2.32649   2.33940   2.35120
  Beta virt. eigenvalues --    2.36783   2.38018   2.39423   2.40422   2.41551
  Beta virt. eigenvalues --    2.42207   2.45565   2.47431   2.48384   2.51002
  Beta virt. eigenvalues --    2.51853   2.52754   2.53867   2.55313   2.57115
  Beta virt. eigenvalues --    2.58157   2.59142   2.60344   2.61117   2.63356
  Beta virt. eigenvalues --    2.65702   2.67338   2.68501   2.70103   2.71168
  Beta virt. eigenvalues --    2.71477   2.73361   2.74425   2.74707   2.77082
  Beta virt. eigenvalues --    2.79385   2.80895   2.82235   2.83685   2.84557
  Beta virt. eigenvalues --    2.86170   2.87016   2.88916   2.89687   2.92537
  Beta virt. eigenvalues --    2.93452   2.95524   2.96728   3.00655   3.01362
  Beta virt. eigenvalues --    3.03629   3.05655   3.08626   3.09827   3.12922
  Beta virt. eigenvalues --    3.13808   3.15580   3.16299   3.19554   3.23438
  Beta virt. eigenvalues --    3.26657   3.31454   3.32226   3.38735   3.41910
  Beta virt. eigenvalues --    3.46539   3.46951   3.52106   3.54606   3.55406
  Beta virt. eigenvalues --    3.58653   3.61899   3.85987   3.93181   4.37982
  Beta virt. eigenvalues --    4.45427   4.55492   4.64152   4.68528   4.74862
  Beta virt. eigenvalues --    4.76728   4.77670   4.80725   4.81981   4.86540
  Beta virt. eigenvalues --    4.92031   4.94518   5.00413   5.06976   5.15115
  Beta virt. eigenvalues --    5.23462   5.36863   5.82055
          Condensed to atoms (all electrons):
               1          2          3          4          5          6
     1  C    5.127836   0.310063   0.454430  -0.066434  -0.095035   0.003232
     2  C    0.310063   5.141742  -0.031528  -0.012704   0.004517  -0.000038
     3  C    0.454430  -0.031528   4.456239   0.445864   0.398721  -0.049714
     4  O   -0.066434  -0.012704   0.445864   8.315853  -0.070537  -0.000007
     5  C   -0.095035   0.004517   0.398721  -0.070537   4.948075   0.231627
     6  O    0.003232  -0.000038  -0.049714  -0.000007   0.231627   8.435626
     7  C   -0.006357  -0.000375  -0.046006   0.004033   0.473400  -0.060018
     8  O   -0.000039   0.000001   0.001983  -0.000010  -0.059295  -0.002618
     9  C   -0.034644   0.002140  -0.011909  -0.000040  -0.042072   0.001877
    10  O    0.003825  -0.000038  -0.000074  -0.000000   0.003695  -0.000008
    11  C    0.525326  -0.043574  -0.037073   0.003862  -0.008234  -0.000146
    12  C   -0.041471  -0.015105   0.002603  -0.000052  -0.000256   0.000000
    13  H   -0.039369   0.385690  -0.000948   0.000310  -0.000114   0.000000
    14  H   -0.042624   0.392178  -0.003422   0.014707   0.000741  -0.000006
    15  H   -0.043637   0.389077   0.000869   0.000278   0.000014   0.000000
    16  C   -0.000374  -0.000002  -0.004854  -0.009864  -0.045908   0.214981
    17  H   -0.000192   0.000012   0.000215   0.009001  -0.006216  -0.034475
    18  H    0.000096  -0.000000   0.000339   0.000319  -0.001322  -0.040050
    19  H    0.000006  -0.000000  -0.000091   0.000228   0.004737  -0.036428
    20  C    0.000045  -0.000000  -0.000131   0.000001  -0.005515   0.000608
    21  H   -0.000023   0.000000  -0.000154   0.000000   0.002530   0.000594
    22  H   -0.000001   0.000000   0.000004  -0.000000  -0.000050  -0.000017
    23  H   -0.000008   0.000000   0.000039  -0.000000  -0.000006   0.000016
    24  H    0.000826  -0.001730   0.000156  -0.000000  -0.000014  -0.000000
    25  H    0.001143   0.000047  -0.000037   0.000000  -0.000007   0.000000
    26  C   -0.001469  -0.000545   0.000017   0.000001  -0.000015  -0.000000
    27  H   -0.000015  -0.000891  -0.000007   0.000000  -0.000001   0.000000
    28  C    0.000020  -0.000002  -0.000000  -0.000000   0.000000  -0.000000
    29  C    0.000053   0.000037   0.000003   0.000000  -0.000001  -0.000000
    30  H    0.000001  -0.000000   0.000000   0.000000  -0.000000   0.000000
    31  H    0.000009  -0.000000  -0.000001  -0.000000   0.000006   0.000000
    32  C   -0.000001   0.000001  -0.000000   0.000000   0.000000  -0.000000
    33  H   -0.000000  -0.000002   0.000000   0.000000  -0.000000   0.000000
    34  H    0.000000  -0.000000   0.000000   0.000000  -0.000000  -0.000000
    35  H    0.000001  -0.000000  -0.000000  -0.000000  -0.000000   0.000000
    36  H   -0.000002   0.000000   0.000000  -0.000000   0.000000   0.000000
    37  H    0.000044  -0.000002   0.000005  -0.000000  -0.000022   0.000000
    38  O   -0.000036   0.000000  -0.000000  -0.000000   0.000000  -0.000000
    39  H   -0.000021   0.000002  -0.000000  -0.000000   0.000000   0.000000
               7          8          9         10         11         12
     1  C   -0.006357  -0.000039  -0.034644   0.003825   0.525326  -0.041471
     2  C   -0.000375   0.000001   0.002140  -0.000038  -0.043574  -0.015105
     3  C   -0.046006   0.001983  -0.011909  -0.000074  -0.037073   0.002603
     4  O    0.004033  -0.000010  -0.000040  -0.000000   0.003862  -0.000052
     5  C    0.473400  -0.059295  -0.042072   0.003695  -0.008234  -0.000256
     6  O   -0.060018  -0.002618   0.001877  -0.000008  -0.000146   0.000000
     7  C    4.973076   0.224515   0.408618  -0.074135  -0.098341   0.005033
     8  O    0.224515   8.433309  -0.049322  -0.000593   0.003746  -0.000056
     9  C    0.408618  -0.049322   4.457424   0.416807   0.441201  -0.028846
    10  O   -0.074135  -0.000593   0.416807   8.475888  -0.075217  -0.006362
    11  C   -0.098341   0.003746   0.441201  -0.075217   5.203719   0.277787
    12  C    0.005033  -0.000056  -0.028846  -0.006362   0.277787   5.300129
    13  H    0.000028  -0.000000  -0.000027   0.000000  -0.001443   0.000057
    14  H   -0.000028   0.000000  -0.000021   0.000000   0.002181   0.000158
    15  H   -0.000014  -0.000000   0.000097  -0.000000  -0.001242  -0.001953
    16  C   -0.002413   0.000299  -0.000039   0.000001   0.000029  -0.000000
    17  H   -0.000365   0.000006   0.000014  -0.000000  -0.000005   0.000000
    18  H    0.002703   0.000179  -0.000070  -0.000000  -0.000013   0.000000
    19  H   -0.000016  -0.000011   0.000003  -0.000000  -0.000001   0.000000
    20  C   -0.047391   0.216287  -0.006213  -0.006684  -0.000512   0.000002
    21  H   -0.002695  -0.039845   0.000603   0.000239   0.000144  -0.000001
    22  H    0.005207  -0.036394  -0.000050   0.000117   0.000008  -0.000000
    23  H   -0.006619  -0.034692  -0.000286   0.011814  -0.000342   0.000007
    24  H    0.000035   0.000000   0.001587   0.000357  -0.047302   0.399340
    25  H    0.000054  -0.000004  -0.001077   0.001782  -0.043664   0.395296
    26  C   -0.000128   0.000001  -0.004403  -0.000244  -0.058651   0.306127
    27  H    0.000006  -0.000000   0.000073  -0.000022  -0.000662  -0.038597
    28  C   -0.000012   0.000000  -0.000336  -0.012621   0.001690  -0.014525
    29  C   -0.000043   0.000000   0.001157   0.000642  -0.003267  -0.036440
    30  H   -0.000000   0.000000   0.000003   0.000233  -0.000057  -0.000158
    31  H   -0.000131  -0.000005  -0.001464   0.015662  -0.001020  -0.001529
    32  C   -0.000001   0.000000  -0.000023   0.000001  -0.000148   0.003938
    33  H    0.000000  -0.000000   0.000000   0.000000  -0.000008   0.000134
    34  H   -0.000000   0.000000   0.000000  -0.000000  -0.000007  -0.000091
    35  H    0.000000  -0.000000   0.000003  -0.000000   0.000036  -0.000108
    36  H    0.000006  -0.000000   0.000032   0.000243  -0.000030   0.000598
    37  H    0.000489   0.000000  -0.002564   0.051282  -0.000766  -0.013707
    38  O   -0.000020   0.000000   0.000167  -0.010883   0.001126  -0.027605
    39  H   -0.000002   0.000000  -0.000056  -0.000056   0.001633  -0.009398
              13         14         15         16         17         18
     1  C   -0.039369  -0.042624  -0.043637  -0.000374  -0.000192   0.000096
     2  C    0.385690   0.392178   0.389077  -0.000002   0.000012  -0.000000
     3  C   -0.000948  -0.003422   0.000869  -0.004854   0.000215   0.000339
     4  O    0.000310   0.014707   0.000278  -0.009864   0.009001   0.000319
     5  C   -0.000114   0.000741   0.000014  -0.045908  -0.006216  -0.001322
     6  O    0.000000  -0.000006   0.000000   0.214981  -0.034475  -0.040050
     7  C    0.000028  -0.000028  -0.000014  -0.002413  -0.000365   0.002703
     8  O   -0.000000   0.000000  -0.000000   0.000299   0.000006   0.000179
     9  C   -0.000027  -0.000021   0.000097  -0.000039   0.000014  -0.000070
    10  O    0.000000   0.000000  -0.000000   0.000001  -0.000000  -0.000000
    11  C   -0.001443   0.002181  -0.001242   0.000029  -0.000005  -0.000013
    12  C    0.000057   0.000158  -0.001953  -0.000000   0.000000   0.000000
    13  H    0.568439  -0.025052  -0.036142  -0.000000   0.000000   0.000000
    14  H   -0.025052   0.477872  -0.022945   0.000003   0.000000  -0.000000
    15  H   -0.036142  -0.022945   0.569559   0.000000  -0.000000  -0.000000
    16  C   -0.000000   0.000003   0.000000   4.848808   0.390549   0.381792
    17  H    0.000000   0.000000  -0.000000   0.390549   0.514654  -0.039263
    18  H    0.000000  -0.000000  -0.000000   0.381792  -0.039263   0.592225
    19  H    0.000000  -0.000000   0.000000   0.392215  -0.028442  -0.033795
    20  C    0.000000  -0.000000  -0.000000  -0.000125   0.000000   0.000021
    21  H   -0.000000  -0.000000   0.000000   0.000016   0.000001  -0.000003
    22  H   -0.000000   0.000000   0.000000   0.000003  -0.000000  -0.000001
    23  H   -0.000000   0.000000  -0.000000   0.000000   0.000000   0.000000
    24  H   -0.000723   0.000041   0.002225   0.000000   0.000000  -0.000000
    25  H   -0.000022   0.000005   0.000043  -0.000000  -0.000000  -0.000000
    26  C   -0.000005  -0.000005  -0.000208  -0.000000  -0.000000   0.000000
    27  H    0.001001   0.000022   0.000035  -0.000000   0.000000   0.000000
    28  C    0.000001   0.000000  -0.000000  -0.000000   0.000000   0.000000
    29  C    0.000041   0.000000   0.000003   0.000000  -0.000000  -0.000000
    30  H    0.000000  -0.000000   0.000000   0.000000   0.000000  -0.000000
    31  H   -0.000000   0.000000  -0.000000   0.000000  -0.000000  -0.000000
    32  C    0.000001  -0.000000  -0.000000   0.000000  -0.000000   0.000000
    33  H    0.000003   0.000000  -0.000000   0.000000   0.000000  -0.000000
    34  H    0.000000   0.000000   0.000000  -0.000000  -0.000000   0.000000
    35  H   -0.000001   0.000000   0.000000   0.000000   0.000000  -0.000000
    36  H   -0.000000  -0.000000   0.000000   0.000000   0.000000  -0.000000
    37  H    0.000000  -0.000000  -0.000000  -0.000000   0.000000   0.000000
    38  O    0.000000   0.000000  -0.000000   0.000000  -0.000000   0.000000
    39  H   -0.000001   0.000000   0.000000   0.000000   0.000000  -0.000000
              19         20         21         22         23         24
     1  C    0.000006   0.000045  -0.000023  -0.000001  -0.000008   0.000826
     2  C   -0.000000  -0.000000   0.000000   0.000000   0.000000  -0.001730
     3  C   -0.000091  -0.000131  -0.000154   0.000004   0.000039   0.000156
     4  O    0.000228   0.000001   0.000000  -0.000000  -0.000000  -0.000000
     5  C    0.004737  -0.005515   0.002530  -0.000050  -0.000006  -0.000014
     6  O   -0.036428   0.000608   0.000594  -0.000017   0.000016  -0.000000
     7  C   -0.000016  -0.047391  -0.002695   0.005207  -0.006619   0.000035
     8  O   -0.000011   0.216287  -0.039845  -0.036394  -0.034692   0.000000
     9  C    0.000003  -0.006213   0.000603  -0.000050  -0.000286   0.001587
    10  O   -0.000000  -0.006684   0.000239   0.000117   0.011814   0.000357
    11  C   -0.000001  -0.000512   0.000144   0.000008  -0.000342  -0.047302
    12  C    0.000000   0.000002  -0.000001  -0.000000   0.000007   0.399340
    13  H    0.000000   0.000000  -0.000000  -0.000000  -0.000000  -0.000723
    14  H   -0.000000  -0.000000  -0.000000   0.000000   0.000000   0.000041
    15  H    0.000000  -0.000000   0.000000   0.000000  -0.000000   0.002225
    16  C    0.392215  -0.000125   0.000016   0.000003   0.000000   0.000000
    17  H   -0.028442   0.000000   0.000001  -0.000000   0.000000   0.000000
    18  H   -0.033795   0.000021  -0.000003  -0.000001   0.000000  -0.000000
    19  H    0.564059   0.000002  -0.000002  -0.000000  -0.000000  -0.000000
    20  C    0.000002   4.843560   0.382134   0.391484   0.390613   0.000000
    21  H   -0.000002   0.382134   0.597783  -0.033927  -0.039731   0.000000
    22  H   -0.000000   0.391484  -0.033927   0.568949  -0.028753   0.000000
    23  H   -0.000000   0.390613  -0.039731  -0.028753   0.514430  -0.000000
    24  H   -0.000000   0.000000   0.000000   0.000000  -0.000000   0.562937
    25  H   -0.000000  -0.000002   0.000000   0.000000   0.000005  -0.021011
    26  C    0.000000   0.000000  -0.000000   0.000000  -0.000000  -0.048284
    27  H   -0.000000   0.000000  -0.000000  -0.000000   0.000000  -0.002585
    28  C   -0.000000  -0.000000   0.000000   0.000000   0.000003   0.000153
    29  C    0.000000  -0.000000   0.000000   0.000000  -0.000000   0.001257
    30  H    0.000000   0.000000  -0.000000  -0.000000  -0.000000   0.000032
    31  H    0.000000   0.000003   0.000000  -0.000000  -0.000013   0.000065
    32  C    0.000000  -0.000000   0.000000   0.000000  -0.000000  -0.000112
    33  H    0.000000  -0.000000  -0.000000  -0.000000  -0.000000  -0.000010
    34  H    0.000000  -0.000000   0.000000   0.000000  -0.000000   0.000011
    35  H   -0.000000   0.000000  -0.000000  -0.000000   0.000000  -0.000002
    36  H   -0.000000   0.000000  -0.000000  -0.000000  -0.000000  -0.000005
    37  H    0.000000  -0.000000  -0.000001  -0.000000   0.000036   0.000247
    38  O   -0.000000  -0.000000   0.000000   0.000000  -0.000001   0.000915
    39  H   -0.000000  -0.000000   0.000000   0.000000   0.000000  -0.000713
              25         26         27         28         29         30
     1  C    0.001143  -0.001469  -0.000015   0.000020   0.000053   0.000001
     2  C    0.000047  -0.000545  -0.000891  -0.000002   0.000037  -0.000000
     3  C   -0.000037   0.000017  -0.000007  -0.000000   0.000003   0.000000
     4  O    0.000000   0.000001   0.000000  -0.000000   0.000000   0.000000
     5  C   -0.000007  -0.000015  -0.000001   0.000000  -0.000001  -0.000000
     6  O    0.000000  -0.000000   0.000000  -0.000000  -0.000000   0.000000
     7  C    0.000054  -0.000128   0.000006  -0.000012  -0.000043  -0.000000
     8  O   -0.000004   0.000001  -0.000000   0.000000   0.000000   0.000000
     9  C   -0.001077  -0.004403   0.000073  -0.000336   0.001157   0.000003
    10  O    0.001782  -0.000244  -0.000022  -0.012621   0.000642   0.000233
    11  C   -0.043664  -0.058651  -0.000662   0.001690  -0.003267  -0.000057
    12  C    0.395296   0.306127  -0.038597  -0.014525  -0.036440  -0.000158
    13  H   -0.000022  -0.000005   0.001001   0.000001   0.000041   0.000000
    14  H    0.000005  -0.000005   0.000022   0.000000   0.000000  -0.000000
    15  H    0.000043  -0.000208   0.000035  -0.000000   0.000003   0.000000
    16  C   -0.000000  -0.000000  -0.000000  -0.000000   0.000000   0.000000
    17  H   -0.000000  -0.000000   0.000000   0.000000  -0.000000   0.000000
    18  H   -0.000000   0.000000   0.000000   0.000000  -0.000000  -0.000000
    19  H   -0.000000   0.000000  -0.000000  -0.000000   0.000000   0.000000
    20  C   -0.000002   0.000000   0.000000  -0.000000  -0.000000   0.000000
    21  H    0.000000  -0.000000  -0.000000   0.000000   0.000000  -0.000000
    22  H    0.000000   0.000000  -0.000000   0.000000   0.000000  -0.000000
    23  H    0.000005  -0.000000   0.000000   0.000003  -0.000000  -0.000000
    24  H   -0.021011  -0.048284  -0.002585   0.000153   0.001257   0.000032
    25  H    0.543012  -0.056452   0.002689   0.003115   0.000277   0.001816
    26  C   -0.056452   5.080969   0.393477  -0.042783   0.700176  -0.003220
    27  H    0.002689   0.393477   0.533405   0.003513  -0.041826  -0.000134
    28  C    0.003115  -0.042783   0.003513   5.279320   0.325939   0.419665
    29  C    0.000277   0.700176  -0.041826   0.325939   4.856556  -0.048492
    30  H    0.001816  -0.003220  -0.000134   0.419665  -0.048492   0.573411
    31  H   -0.000033  -0.004806  -0.000017   0.439441  -0.045424  -0.014734
    32  C    0.000110  -0.051045  -0.007236  -0.061299   0.353409   0.000092
    33  H    0.000003   0.000645   0.003743   0.003659  -0.044082  -0.000166
    34  H    0.000016  -0.000999   0.000126   0.000522  -0.043266   0.002057
    35  H   -0.000013  -0.001018   0.000227  -0.001311  -0.039673  -0.000231
    36  H   -0.000620   0.001958  -0.000123   0.356364  -0.027372  -0.043622
    37  H    0.006480   0.002062  -0.000041  -0.018388   0.001376   0.001361
    38  O   -0.003617  -0.003702  -0.000032  -0.210958   0.009168  -0.045042
    39  H   -0.005338   0.006720   0.000003   0.006082   0.003819  -0.005212
              31         32         33         34         35         36
     1  C    0.000009  -0.000001  -0.000000   0.000000   0.000001  -0.000002
     2  C   -0.000000   0.000001  -0.000002  -0.000000  -0.000000   0.000000
     3  C   -0.000001  -0.000000   0.000000   0.000000  -0.000000   0.000000
     4  O   -0.000000   0.000000   0.000000   0.000000  -0.000000  -0.000000
     5  C    0.000006   0.000000  -0.000000  -0.000000  -0.000000   0.000000
     6  O    0.000000  -0.000000   0.000000  -0.000000   0.000000   0.000000
     7  C   -0.000131  -0.000001   0.000000  -0.000000   0.000000   0.000006
     8  O   -0.000005   0.000000  -0.000000   0.000000  -0.000000  -0.000000
     9  C   -0.001464  -0.000023   0.000000   0.000000   0.000003   0.000032
    10  O    0.015662   0.000001   0.000000  -0.000000  -0.000000   0.000243
    11  C   -0.001020  -0.000148  -0.000008  -0.000007   0.000036  -0.000030
    12  C   -0.001529   0.003938   0.000134  -0.000091  -0.000108   0.000598
    13  H   -0.000000   0.000001   0.000003   0.000000  -0.000001  -0.000000
    14  H    0.000000  -0.000000   0.000000   0.000000   0.000000  -0.000000
    15  H   -0.000000  -0.000000  -0.000000   0.000000   0.000000   0.000000
    16  C    0.000000   0.000000   0.000000  -0.000000   0.000000   0.000000
    17  H   -0.000000  -0.000000   0.000000  -0.000000   0.000000   0.000000
    18  H   -0.000000   0.000000  -0.000000   0.000000  -0.000000  -0.000000
    19  H    0.000000   0.000000   0.000000   0.000000  -0.000000  -0.000000
    20  C    0.000003  -0.000000  -0.000000  -0.000000   0.000000   0.000000
    21  H    0.000000   0.000000  -0.000000   0.000000  -0.000000  -0.000000
    22  H   -0.000000   0.000000  -0.000000   0.000000  -0.000000  -0.000000
    23  H   -0.000013  -0.000000  -0.000000  -0.000000   0.000000  -0.000000
    24  H    0.000065  -0.000112  -0.000010   0.000011  -0.000002  -0.000005
    25  H   -0.000033   0.000110   0.000003   0.000016  -0.000013  -0.000620
    26  C   -0.004806  -0.051045   0.000645  -0.000999  -0.001018   0.001958
    27  H   -0.000017  -0.007236   0.003743   0.000126   0.000227  -0.000123
    28  C    0.439441  -0.061299   0.003659   0.000522  -0.001311   0.356364
    29  C   -0.045424   0.353409  -0.044082  -0.043266  -0.039673  -0.027372
    30  H   -0.014734   0.000092  -0.000166   0.002057  -0.000231  -0.043622
    31  H    0.537086   0.003966  -0.000120   0.000008  -0.000140  -0.035965
    32  C    0.003966   5.101936   0.388818   0.384761   0.385383  -0.006496
    33  H   -0.000120   0.388818   0.555519  -0.028457  -0.026212   0.000265
    34  H    0.000008   0.384761  -0.028457   0.582847  -0.037841  -0.000411
    35  H   -0.000140   0.385383  -0.026212  -0.037841   0.563092   0.002458
    36  H   -0.035965  -0.006496   0.000265  -0.000411   0.002458   0.627941
    37  H   -0.011034  -0.000119   0.000001  -0.000007   0.000010   0.000264
    38  O   -0.073017   0.000011   0.000006   0.000009  -0.000006   0.012295
    39  H    0.004753   0.000142  -0.000014  -0.000087   0.000022   0.000160
              37         38         39
     1  C    0.000044  -0.000036  -0.000021
     2  C   -0.000002   0.000000   0.000002
     3  C    0.000005  -0.000000  -0.000000
     4  O   -0.000000  -0.000000  -0.000000
     5  C   -0.000022   0.000000   0.000000
     6  O    0.000000  -0.000000   0.000000
     7  C    0.000489  -0.000020  -0.000002
     8  O    0.000000   0.000000   0.000000
     9  C   -0.002564   0.000167  -0.000056
    10  O    0.051282  -0.010883  -0.000056
    11  C   -0.000766   0.001126   0.001633
    12  C   -0.013707  -0.027605  -0.009398
    13  H    0.000000   0.000000  -0.000001
    14  H   -0.000000   0.000000   0.000000
    15  H   -0.000000  -0.000000   0.000000
    16  C   -0.000000   0.000000   0.000000
    17  H    0.000000  -0.000000   0.000000
    18  H    0.000000   0.000000  -0.000000
    19  H    0.000000  -0.000000  -0.000000
    20  C   -0.000000  -0.000000  -0.000000
    21  H   -0.000001   0.000000   0.000000
    22  H   -0.000000   0.000000   0.000000
    23  H    0.000036  -0.000001   0.000000
    24  H    0.000247   0.000915  -0.000713
    25  H    0.006480  -0.003617  -0.005338
    26  C    0.002062  -0.003702   0.006720
    27  H   -0.000041  -0.000032   0.000003
    28  C   -0.018388  -0.210958   0.006082
    29  C    0.001376   0.009168   0.003819
    30  H    0.001361  -0.045042  -0.005212
    31  H   -0.011034  -0.073017   0.004753
    32  C   -0.000119   0.000011   0.000142
    33  H    0.000001   0.000006  -0.000014
    34  H   -0.000007   0.000009  -0.000087
    35  H    0.000010  -0.000006   0.000022
    36  H    0.000264   0.012295   0.000160
    37  H    0.234058   0.241410  -0.024143
    38  O    0.241410   8.771798   0.269949
    39  H   -0.024143   0.269949   0.298435
          Atomic-Atomic Spin Densities.
               1          2          3          4          5          6
     1  C    0.537162  -0.010670   0.061476  -0.006854  -0.013085   0.000114
     2  C   -0.010670  -0.067722  -0.003693   0.000922  -0.000057   0.000000
     3  C    0.061476  -0.003693  -0.216777  -0.111378   0.062540  -0.001892
     4  O   -0.006854   0.000922  -0.111378   0.585211  -0.005831   0.000656
     5  C   -0.013085  -0.000057   0.062540  -0.005831   0.477376  -0.031432
     6  O    0.000114   0.000000  -0.001892   0.000656  -0.031432   0.010498
     7  C   -0.002996  -0.000000  -0.002301   0.000330  -0.052970   0.004977
     8  O    0.000019  -0.000000  -0.000038   0.000000   0.001171  -0.000224
     9  C   -0.008902  -0.000024  -0.002447   0.000052  -0.010930   0.000023
    10  O    0.000623   0.000000   0.000023  -0.000000   0.000494  -0.000000
    11  C   -0.075966   0.005373  -0.005494   0.000453  -0.002011  -0.000003
    12  C    0.001397   0.000067  -0.000097   0.000001   0.000016  -0.000000
    13  H   -0.009342   0.005018  -0.000317   0.000168  -0.000010   0.000000
    14  H   -0.001238   0.003984   0.001105  -0.002187  -0.000020   0.000000
    15  H   -0.007034   0.004482  -0.000065   0.000044  -0.000004   0.000000
    16  C   -0.000003   0.000000  -0.000461   0.000015  -0.008409   0.003597
    17  H   -0.000066  -0.000000  -0.000974  -0.000390  -0.001124   0.000195
    18  H    0.000003  -0.000000   0.000383  -0.000090   0.002194  -0.000549
    19  H    0.000000  -0.000000  -0.000034  -0.000029   0.000633   0.000229
    20  C    0.000025   0.000000  -0.000045  -0.000000   0.001586  -0.000060
    21  H   -0.000008   0.000000   0.000005   0.000000  -0.000337   0.000044
    22  H   -0.000000  -0.000000  -0.000000   0.000000  -0.000028   0.000002
    23  H    0.000009  -0.000000   0.000007  -0.000000   0.000149  -0.000002
    24  H    0.000144  -0.000288   0.000013  -0.000000   0.000001  -0.000000
    25  H    0.000269  -0.000009  -0.000005  -0.000000   0.000009   0.000000
    26  C    0.000337   0.000047  -0.000007  -0.000001   0.000016  -0.000000
    27  H   -0.000206   0.000015  -0.000009   0.000000  -0.000001   0.000000
    28  C   -0.000011   0.000000  -0.000000   0.000000  -0.000000   0.000000
    29  C   -0.000000  -0.000003   0.000001  -0.000000   0.000001  -0.000000
    30  H    0.000000   0.000000   0.000000  -0.000000  -0.000000  -0.000000
    31  H    0.000018  -0.000000   0.000001  -0.000000  -0.000001  -0.000000
    32  C    0.000003  -0.000000   0.000000  -0.000000   0.000000  -0.000000
    33  H   -0.000000   0.000000   0.000000  -0.000000   0.000000  -0.000000
    34  H    0.000000  -0.000000   0.000000  -0.000000   0.000000  -0.000000
    35  H   -0.000000   0.000000  -0.000000   0.000000  -0.000000   0.000000
    36  H   -0.000000   0.000000   0.000000   0.000000  -0.000000   0.000000
    37  H    0.000003   0.000000  -0.000000  -0.000000   0.000002   0.000000
    38  O   -0.000001   0.000000   0.000000   0.000000  -0.000000  -0.000000
    39  H    0.000002  -0.000000   0.000000   0.000000  -0.000000   0.000000
               7          8          9         10         11         12
     1  C   -0.002996   0.000019  -0.008902   0.000623  -0.075966   0.001397
     2  C   -0.000000  -0.000000  -0.000024   0.000000   0.005373   0.000067
     3  C   -0.002301  -0.000038  -0.002447   0.000023  -0.005494  -0.000097
     4  O    0.000330   0.000000   0.000052  -0.000000   0.000453   0.000001
     5  C   -0.052970   0.001171  -0.010930   0.000494  -0.002011   0.000016
     6  O    0.004977  -0.000224   0.000023  -0.000000  -0.000003  -0.000000
     7  C   -0.397425   0.021615   0.073788  -0.000401   0.003281   0.000087
     8  O    0.021615  -0.001500  -0.004337   0.000256  -0.000105   0.000001
     9  C    0.073788  -0.004337   0.359217  -0.135272   0.086085  -0.006579
    10  O   -0.000401   0.000256  -0.135272   0.366185  -0.001065  -0.000465
    11  C    0.003281  -0.000105   0.086085  -0.001065  -0.366989   0.012418
    12  C    0.000087   0.000001  -0.006579  -0.000465   0.012418   0.026247
    13  H    0.000009  -0.000000   0.000036  -0.000000   0.000972  -0.000107
    14  H    0.000003  -0.000000  -0.000006  -0.000000  -0.000144   0.000029
    15  H    0.000006  -0.000000   0.000016  -0.000001   0.000846  -0.000177
    16  C    0.001383  -0.000039  -0.000011  -0.000000   0.000011  -0.000000
    17  H    0.000064  -0.000001   0.000003  -0.000000   0.000005  -0.000000
    18  H   -0.000747   0.000050  -0.000004   0.000000  -0.000005   0.000000
    19  H    0.000002   0.000000  -0.000001   0.000000   0.000000   0.000000
    20  C    0.012892  -0.003935  -0.001011  -0.000101  -0.000093  -0.000000
    21  H   -0.002128   0.000614   0.000219  -0.000017   0.000017   0.000000
    22  H   -0.000328  -0.000100   0.000044  -0.000035   0.000002   0.000000
    23  H   -0.000511  -0.000072  -0.002454   0.000514  -0.000089   0.000001
    24  H   -0.000010   0.000000  -0.000073   0.000014   0.001909  -0.001831
    25  H   -0.000027  -0.000000  -0.001108   0.000264   0.001758  -0.000743
    26  C   -0.000072   0.000000  -0.000364   0.000223   0.005717  -0.004427
    27  H    0.000002  -0.000000   0.000070  -0.000003   0.000332  -0.000371
    28  C    0.000005  -0.000000   0.000878  -0.000465   0.000019   0.000364
    29  C   -0.000003   0.000000  -0.000414   0.000053  -0.001044   0.000262
    30  H   -0.000000   0.000000  -0.000015  -0.000001   0.000006  -0.000022
    31  H   -0.000008   0.000002  -0.001805   0.001110  -0.000066  -0.000457
    32  C   -0.000000   0.000000  -0.000011   0.000001   0.000029  -0.000001
    33  H    0.000000   0.000000  -0.000000   0.000000  -0.000002   0.000001
    34  H   -0.000000   0.000000  -0.000000   0.000000   0.000000  -0.000000
    35  H    0.000000  -0.000000   0.000003  -0.000000  -0.000004  -0.000000
    36  H    0.000000  -0.000000   0.000006  -0.000008  -0.000005  -0.000003
    37  H   -0.000051  -0.000001  -0.000238  -0.003508   0.000166   0.000571
    38  O    0.000002   0.000000   0.000119   0.000517  -0.000087  -0.000162
    39  H   -0.000000   0.000000   0.000001   0.000010  -0.000005  -0.000213
              13         14         15         16         17         18
     1  C   -0.009342  -0.001238  -0.007034  -0.000003  -0.000066   0.000003
     2  C    0.005018   0.003984   0.004482   0.000000  -0.000000  -0.000000
     3  C   -0.000317   0.001105  -0.000065  -0.000461  -0.000974   0.000383
     4  O    0.000168  -0.002187   0.000044   0.000015  -0.000390  -0.000090
     5  C   -0.000010  -0.000020  -0.000004  -0.008409  -0.001124   0.002194
     6  O    0.000000   0.000000   0.000000   0.003597   0.000195  -0.000549
     7  C    0.000009   0.000003   0.000006   0.001383   0.000064  -0.000747
     8  O   -0.000000  -0.000000  -0.000000  -0.000039  -0.000001   0.000050
     9  C    0.000036  -0.000006   0.000016  -0.000011   0.000003  -0.000004
    10  O   -0.000000  -0.000000  -0.000001  -0.000000  -0.000000   0.000000
    11  C    0.000972  -0.000144   0.000846   0.000011   0.000005  -0.000005
    12  C   -0.000107   0.000029  -0.000177  -0.000000  -0.000000   0.000000
    13  H    0.028067  -0.001417  -0.004870  -0.000000   0.000001   0.000000
    14  H   -0.001417   0.001957   0.000278   0.000000   0.000000   0.000000
    15  H   -0.004870   0.000278   0.019692   0.000000  -0.000000   0.000000
    16  C   -0.000000   0.000000   0.000000   0.010075   0.001097  -0.001028
    17  H    0.000001   0.000000  -0.000000   0.001097   0.001057  -0.000595
    18  H    0.000000   0.000000   0.000000  -0.001028  -0.000595  -0.000251
    19  H    0.000000   0.000000  -0.000000  -0.000523  -0.000471   0.000902
    20  C    0.000000  -0.000000  -0.000000   0.000046   0.000001  -0.000011
    21  H   -0.000000   0.000000   0.000000  -0.000009  -0.000000   0.000001
    22  H   -0.000000   0.000000   0.000000  -0.000001  -0.000000   0.000000
    23  H    0.000000  -0.000000  -0.000000   0.000001   0.000000  -0.000000
    24  H    0.000133  -0.000013  -0.000294   0.000000   0.000000  -0.000000
    25  H    0.000005  -0.000000  -0.000009   0.000000   0.000000  -0.000000
    26  C   -0.000260   0.000003   0.000081  -0.000000  -0.000000   0.000000
    27  H    0.000183  -0.000001  -0.000037   0.000000   0.000000  -0.000000
    28  C    0.000000  -0.000000  -0.000000   0.000000   0.000000  -0.000000
    29  C   -0.000003  -0.000000   0.000001  -0.000000  -0.000000   0.000000
    30  H   -0.000000   0.000000   0.000000  -0.000000  -0.000000   0.000000
    31  H   -0.000001   0.000000   0.000000  -0.000000  -0.000000   0.000000
    32  C   -0.000001   0.000000   0.000000  -0.000000  -0.000000   0.000000
    33  H   -0.000000  -0.000000   0.000000  -0.000000  -0.000000   0.000000
    34  H   -0.000000   0.000000   0.000000  -0.000000  -0.000000   0.000000
    35  H    0.000000  -0.000000  -0.000000   0.000000   0.000000  -0.000000
    36  H    0.000000  -0.000000   0.000000   0.000000   0.000000  -0.000000
    37  H    0.000000  -0.000000  -0.000001   0.000000   0.000000  -0.000000
    38  O   -0.000000   0.000000   0.000000  -0.000000  -0.000000   0.000000
    39  H    0.000000  -0.000000  -0.000000   0.000000   0.000000  -0.000000
              19         20         21         22         23         24
     1  C    0.000000   0.000025  -0.000008  -0.000000   0.000009   0.000144
     2  C   -0.000000   0.000000   0.000000  -0.000000  -0.000000  -0.000288
     3  C   -0.000034  -0.000045   0.000005  -0.000000   0.000007   0.000013
     4  O   -0.000029  -0.000000   0.000000   0.000000  -0.000000  -0.000000
     5  C    0.000633   0.001586  -0.000337  -0.000028   0.000149   0.000001
     6  O    0.000229  -0.000060   0.000044   0.000002  -0.000002  -0.000000
     7  C    0.000002   0.012892  -0.002128  -0.000328  -0.000511  -0.000010
     8  O    0.000000  -0.003935   0.000614  -0.000100  -0.000072   0.000000
     9  C   -0.000001  -0.001011   0.000219   0.000044  -0.002454  -0.000073
    10  O    0.000000  -0.000101  -0.000017  -0.000035   0.000514   0.000014
    11  C    0.000000  -0.000093   0.000017   0.000002  -0.000089   0.001909
    12  C    0.000000  -0.000000   0.000000   0.000000   0.000001  -0.001831
    13  H    0.000000   0.000000  -0.000000  -0.000000   0.000000   0.000133
    14  H    0.000000  -0.000000   0.000000   0.000000  -0.000000  -0.000013
    15  H   -0.000000  -0.000000   0.000000   0.000000  -0.000000  -0.000294
    16  C   -0.000523   0.000046  -0.000009  -0.000001   0.000001   0.000000
    17  H   -0.000471   0.000001  -0.000000  -0.000000   0.000000   0.000000
    18  H    0.000902  -0.000011   0.000001   0.000000  -0.000000  -0.000000
    19  H   -0.000157   0.000000   0.000000   0.000000  -0.000000  -0.000000
    20  C    0.000000  -0.021544   0.002325   0.001709   0.000773   0.000000
    21  H    0.000000   0.002325  -0.000438  -0.000489  -0.000277  -0.000000
    22  H    0.000000   0.001709  -0.000489  -0.000772  -0.000577  -0.000000
    23  H   -0.000000   0.000773  -0.000277  -0.000577   0.002750   0.000000
    24  H   -0.000000   0.000000  -0.000000  -0.000000   0.000000  -0.005548
    25  H   -0.000000  -0.000000   0.000000  -0.000000  -0.000000   0.000078
    26  C    0.000000  -0.000000   0.000000   0.000000  -0.000000   0.001647
    27  H   -0.000000   0.000000  -0.000000  -0.000000   0.000000   0.000117
    28  C   -0.000000  -0.000000  -0.000000  -0.000000   0.000000   0.000040
    29  C    0.000000   0.000000  -0.000000   0.000000  -0.000000  -0.000278
    30  H    0.000000  -0.000000   0.000000   0.000000  -0.000000  -0.000001
    31  H    0.000000  -0.000000   0.000000   0.000000  -0.000003  -0.000044
    32  C    0.000000  -0.000000   0.000000   0.000000  -0.000000   0.000003
    33  H    0.000000   0.000000  -0.000000   0.000000  -0.000000  -0.000000
    34  H    0.000000  -0.000000   0.000000   0.000000  -0.000000   0.000000
    35  H   -0.000000   0.000000  -0.000000  -0.000000   0.000000  -0.000000
    36  H   -0.000000   0.000000  -0.000000  -0.000000   0.000000  -0.000000
    37  H   -0.000000  -0.000000   0.000000  -0.000000   0.000007   0.000065
    38  O    0.000000   0.000000  -0.000000   0.000000  -0.000000  -0.000002
    39  H   -0.000000   0.000000  -0.000000  -0.000000   0.000000  -0.000063
              25         26         27         28         29         30
     1  C    0.000269   0.000337  -0.000206  -0.000011  -0.000000   0.000000
     2  C   -0.000009   0.000047   0.000015   0.000000  -0.000003   0.000000
     3  C   -0.000005  -0.000007  -0.000009  -0.000000   0.000001   0.000000
     4  O   -0.000000  -0.000001   0.000000   0.000000  -0.000000  -0.000000
     5  C    0.000009   0.000016  -0.000001  -0.000000   0.000001  -0.000000
     6  O    0.000000  -0.000000   0.000000   0.000000  -0.000000  -0.000000
     7  C   -0.000027  -0.000072   0.000002   0.000005  -0.000003  -0.000000
     8  O   -0.000000   0.000000  -0.000000  -0.000000   0.000000   0.000000
     9  C   -0.001108  -0.000364   0.000070   0.000878  -0.000414  -0.000015
    10  O    0.000264   0.000223  -0.000003  -0.000465   0.000053  -0.000001
    11  C    0.001758   0.005717   0.000332   0.000019  -0.001044   0.000006
    12  C   -0.000743  -0.004427  -0.000371   0.000364   0.000262  -0.000022
    13  H    0.000005  -0.000260   0.000183   0.000000  -0.000003  -0.000000
    14  H   -0.000000   0.000003  -0.000001  -0.000000  -0.000000   0.000000
    15  H   -0.000009   0.000081  -0.000037  -0.000000   0.000001   0.000000
[...]
    13  H(1)               0.00595      26.59753       9.49066       8.87198
    14  H(1)               0.00098       4.38510       1.56471       1.46271
    15  H(1)               0.00442      19.76806       7.05374       6.59392
    16  C(13)              0.00710       7.97805       2.84677       2.66119
    17  H(1)               0.00005       0.22857       0.08156       0.07624
    18  H(1)              -0.00028      -1.24967      -0.44591      -0.41685
    19  H(1)              -0.00005      -0.20194      -0.07206      -0.06736
    20  C(13)             -0.00943     -10.60477      -3.78405      -3.53737
    21  H(1)               0.00020       0.89844       0.32058       0.29969
    22  H(1)               0.00001       0.03701       0.01321       0.01234
    23  H(1)               0.00028       1.24160       0.44303       0.41415
    24  H(1)              -0.00073      -3.27746      -1.16948      -1.09324
    25  H(1)              -0.00053      -2.37766      -0.84841      -0.79310
    26  C(13)              0.00296       3.32970       1.18812       1.11067
    27  H(1)              -0.00089      -3.95995      -1.41301      -1.32090
    28  C(13)              0.00126       1.42164       0.50728       0.47421
    29  C(13)             -0.00832      -9.35392      -3.33771      -3.12013
    30  H(1)              -0.00076      -3.38421      -1.20757      -1.12885
    31  H(1)              -0.00007      -0.32709      -0.11671      -0.10911
    32  C(13)              0.00165       1.85681       0.66256       0.61937
    33  H(1)              -0.00008      -0.34539      -0.12325      -0.11521
    34  H(1)              -0.00062      -2.78135      -0.99245      -0.92776
    35  H(1)              -0.00068      -3.03296      -1.08224      -1.01169
    36  H(1)              -0.00042      -1.88814      -0.67374      -0.62982
    37  H(1)               0.00000       0.00604       0.00216       0.00202
    38  O(17)             -0.00001       0.00346       0.00124       0.00116
    39  H(1)               0.00000       0.00152       0.00054       0.00051
 --------------------------------------------------------
       Center         ----  Spin Dipole Couplings  ----
                      3XX-RR        3YY-RR        3ZZ-RR
 --------------------------------------------------------
     1   Atom       -0.125136     -0.111006      0.236142
     2   Atom        0.005246     -0.004202     -0.001044
     3   Atom        0.017044      0.019450     -0.036494
     4   Atom       -0.717449     -0.651138      1.368587
     5   Atom       -0.120584     -0.111267      0.231850
     6   Atom       -0.032922     -0.015243      0.048165
     7   Atom        0.065375      0.068098     -0.133473
     8   Atom       -0.003129      0.024401     -0.021272
     9   Atom       -0.086497     -0.081361      0.167858
    10   Atom       -0.520628     -0.545288      1.065916
    11   Atom        0.056792      0.050601     -0.107392
    12   Atom        0.004690      0.000383     -0.005073
    13   Atom        0.001603      0.002205     -0.003809
    14   Atom       -0.000859      0.004332     -0.003472
    15   Atom        0.001402      0.000342     -0.001744
    16   Atom        0.001828     -0.002670      0.000842
    17   Atom        0.001731     -0.002601      0.000870
    18   Atom       -0.000761     -0.002311      0.003073
    19   Atom        0.002238     -0.001343     -0.000895
    20   Atom        0.003415     -0.001891     -0.001524
    21   Atom        0.000778      0.001473     -0.002252
    22   Atom        0.000626      0.000291     -0.000917
    23   Atom        0.000346      0.002709     -0.003055
    24   Atom        0.000923     -0.000079     -0.000844
    25   Atom        0.002419      0.000068     -0.002487
    26   Atom        0.018838     -0.012106     -0.006732
    27   Atom        0.001060      0.001707     -0.002767
    28   Atom        0.002421     -0.000985     -0.001436
    29   Atom       -0.013646      0.015252     -0.001605
    30   Atom        0.001837     -0.001143     -0.000694
    31   Atom        0.007645     -0.003992     -0.003653
    32   Atom        0.000706     -0.000718      0.000012
    33   Atom        0.000617     -0.000465     -0.000151
    34   Atom        0.000576     -0.000222     -0.000354
    35   Atom        0.000436     -0.000267     -0.000169
    36   Atom        0.001263     -0.001469      0.000206
    37   Atom        0.001105     -0.000469     -0.000636
    38   Atom        0.000706     -0.000288     -0.000419
    39   Atom        0.000635     -0.000257     -0.000378
 --------------------------------------------------------
                        XY            XZ            YZ
 --------------------------------------------------------
     1   Atom       -0.018946      0.065779     -0.089191
     2   Atom       -0.002185     -0.002168      0.000284
     3   Atom        0.019797     -0.000511      0.005706
     4   Atom       -0.110484      0.411309     -0.553463
     5   Atom       -0.012414      0.057927     -0.083003
     6   Atom        0.006528      0.043481      0.001374
     7   Atom        0.014642     -0.038519      0.060674
     8   Atom       -0.010550     -0.013157      0.000994
     9   Atom       -0.002706      0.059745     -0.057899
    10   Atom       -0.098698      0.355887     -0.333477
    11   Atom        0.010130     -0.025454      0.029770
    12   Atom       -0.002854     -0.002740      0.002169
    13   Atom       -0.003692     -0.000959      0.000867
    14   Atom       -0.004979     -0.002908      0.003812
    15   Atom       -0.003113     -0.001890      0.002386
    16   Atom        0.002576     -0.008230     -0.002821
    17   Atom       -0.000938     -0.007211      0.002242
    18   Atom       -0.001034     -0.003068      0.001683
    19   Atom       -0.001151     -0.002220      0.000700
    20   Atom       -0.002589      0.001477      0.005086
    21   Atom       -0.000651     -0.000405     -0.000227
    22   Atom       -0.000882      0.000011      0.000040
    23   Atom       -0.004507      0.002813     -0.001244
    24   Atom       -0.000034     -0.000826      0.000800
    25   Atom       -0.003697     -0.003129      0.002015
    26   Atom       -0.008917     -0.026030      0.006629
    27   Atom       -0.000557     -0.000605     -0.000661
    28   Atom       -0.000134      0.001367      0.000109
    29   Atom        0.007323      0.025759     -0.006097
    30   Atom       -0.000250      0.000519      0.000109
    31   Atom       -0.001249      0.003062     -0.000235
    32   Atom       -0.000372      0.000860     -0.000115
    33   Atom       -0.000304      0.000730     -0.000047
    34   Atom        0.000016      0.000189      0.000036
    35   Atom       -0.000163      0.000618      0.000036
    36   Atom        0.000006      0.001646     -0.000182
    37   Atom        0.000033     -0.000285      0.000066
    38   Atom        0.000050     -0.000130      0.000002
    39   Atom       -0.000056     -0.000100      0.000028
 --------------------------------------------------------


 ---------------------------------------------------------------------------------
              Anisotropic Spin Dipole Couplings in Principal Axis System
 ---------------------------------------------------------------------------------

       Atom             a.u.   MegaHertz   Gauss  10(-4) cm-1        Axes

              Baa    -0.1384   -18.576    -6.628    -6.196  0.8825  0.4683 -0.0435
     1 C(13)  Bbb    -0.1311   -17.597    -6.279    -5.870 -0.4382  0.8523  0.2855
              Bcc     0.2696    36.173    12.908    12.066  0.1707 -0.2329  0.9574
 
              Baa    -0.0047    -0.630    -0.225    -0.210  0.2266  0.9722  0.0590
     2 C(13)  Bbb    -0.0017    -0.225    -0.080    -0.075  0.2623 -0.1193  0.9576
              Bcc     0.0064     0.854     0.305     0.285  0.9380 -0.2015 -0.2820
 
              Baa    -0.0372    -4.992    -1.781    -1.665  0.0525 -0.1182  0.9916
     3 C(13)  Bbb    -0.0011    -0.144    -0.051    -0.048  0.7309 -0.6720 -0.1188
              Bcc     0.0383     5.136     1.833     1.713  0.6804  0.7310  0.0511
 
              Baa    -0.7996    57.862    20.647    19.301  0.7963  0.6049  0.0033
     4 O(17)  Bbb    -0.7893    57.113    20.379    19.051 -0.5770  0.7579  0.3044
              Bcc     1.5889  -114.975   -41.026   -38.351  0.1816 -0.2443  0.9525
 
              Baa    -0.1309   -17.567    -6.268    -5.860 -0.5917  0.7601  0.2684
     5 C(13)  Bbb    -0.1292   -17.335    -6.185    -5.782  0.7913  0.6112  0.0136
              Bcc     0.2601    34.902    12.454    11.642  0.1538 -0.2204  0.9632
 
              Baa    -0.0526     3.808     1.359     1.270  0.9093 -0.1445 -0.3903
     6 O(17)  Bbb    -0.0146     1.059     0.378     0.353  0.1139  0.9884 -0.1005
              Bcc     0.0673    -4.866    -1.736    -1.623  0.4003  0.0469  0.9152
 
              Baa    -0.1579   -21.185    -7.559    -7.066  0.1808 -0.2660  0.9469
     7 C(13)  Bbb     0.0719     9.642     3.440     3.216  0.9457 -0.2174 -0.2417
              Bcc     0.0860    11.543     4.119     3.850  0.2702  0.9391  0.2122
 
              Baa    -0.0285     2.063     0.736     0.688  0.4849  0.0803  0.8709
     8 O(17)  Bbb    -0.0001     0.004     0.001     0.001  0.7990  0.3641 -0.4785
              Bcc     0.0286    -2.067    -0.738    -0.689 -0.3555  0.9279  0.1124
 
              Baa    -0.1068   -14.338    -5.116    -4.783  0.7683 -0.5718 -0.2876
     9 C(13)  Bbb    -0.0862   -11.572    -4.129    -3.860  0.6059  0.7946  0.0386
              Bcc     0.1931    25.910     9.245     8.643  0.2065 -0.2039  0.9570
 
              Baa    -0.6328    45.792    16.340    15.274  0.6078  0.7936  0.0285
    10 O(17)  Bbb    -0.5777    41.805    14.917    13.945  0.7663 -0.5768 -0.2829
              Bcc     1.2106   -87.597   -31.257   -29.219  0.2081 -0.1938  0.9587
 
              Baa    -0.1170   -15.696    -5.601    -5.236  0.1529 -0.1818  0.9714
    11 C(13)  Bbb     0.0526     7.059     2.519     2.355 -0.5325  0.8129  0.2360
              Bcc     0.0644     8.637     3.082     2.881  0.8325  0.5533 -0.0275
 
              Baa    -0.0061    -0.823    -0.294    -0.274  0.1785 -0.2396  0.9543
    12 C(13)  Bbb    -0.0009    -0.127    -0.045    -0.042  0.4951  0.8600  0.1233
              Bcc     0.0071     0.950     0.339     0.317  0.8503 -0.4505 -0.2721
 
              Baa    -0.0040    -2.128    -0.759    -0.710  0.1291 -0.0616  0.9897
    13 H(1)   Bbb    -0.0018    -0.957    -0.342    -0.319  0.7281  0.6835 -0.0524
              Bcc     0.0058     3.085     1.101     1.029 -0.6732  0.7273  0.1331
 
              Baa    -0.0054    -2.892    -1.032    -0.965  0.4263 -0.1322  0.8949
    14 H(1)   Bbb    -0.0037    -1.992    -0.711    -0.664  0.7560  0.5953 -0.2722
              Bcc     0.0092     4.884     1.743     1.629 -0.4968  0.7925  0.3537
 
              Baa    -0.0033    -1.767    -0.631    -0.589 -0.0566 -0.5792  0.8132
    15 H(1)   Bbb    -0.0020    -1.062    -0.379    -0.354  0.7288  0.5328  0.4302
              Bcc     0.0053     2.829     1.009     0.944  0.6824 -0.6170 -0.3920
 
              Baa    -0.0069    -0.931    -0.332    -0.310  0.6688  0.0846  0.7386
    16 C(13)  Bbb    -0.0037    -0.501    -0.179    -0.167 -0.2589  0.9578  0.1248
              Bcc     0.0107     1.432     0.511     0.477  0.6969  0.2747 -0.6625
 
              Baa    -0.0062    -3.319    -1.184    -1.107  0.6245 -0.2878  0.7261
    17 H(1)   Bbb    -0.0027    -1.458    -0.520    -0.486  0.3342  0.9387  0.0847
              Bcc     0.0090     4.777     1.705     1.594  0.7059 -0.1898 -0.6824
 
              Baa    -0.0028    -1.517    -0.541    -0.506  0.3109  0.9444 -0.1074
    18 H(1)   Bbb    -0.0024    -1.303    -0.465    -0.435  0.8251 -0.2121  0.5236
              Bcc     0.0053     2.820     1.006     0.941 -0.4717  0.2514  0.8451
 
              Baa    -0.0021    -1.103    -0.394    -0.368  0.3977 -0.2271  0.8890
    19 H(1)   Bbb    -0.0017    -0.895    -0.319    -0.298  0.3290  0.9397  0.0929
              Bcc     0.0037     1.998     0.713     0.666  0.8565 -0.2556 -0.4484
 
              Baa    -0.0076    -1.015    -0.362    -0.338  0.2556  0.7076 -0.6588
    20 C(13)  Bbb     0.0030     0.398     0.142     0.133  0.4862  0.4949  0.7202
              Bcc     0.0046     0.616     0.220     0.206  0.8356 -0.5043 -0.2176
 
              Baa    -0.0023    -1.244    -0.444    -0.415  0.1459  0.0839  0.9857
    21 H(1)   Bbb     0.0005     0.249     0.089     0.083  0.8445  0.5085 -0.1683
              Bcc     0.0019     0.994     0.355     0.332 -0.5153  0.8570  0.0033
 
              Baa    -0.0009    -0.491    -0.175    -0.164 -0.0445 -0.0654  0.9969
    22 H(1)   Bbb    -0.0004    -0.233    -0.083    -0.078  0.6363  0.7674  0.0787
              Bcc     0.0014     0.724     0.258     0.241  0.7702 -0.6378 -0.0075
 
              Baa    -0.0049    -2.624    -0.936    -0.875 -0.6068 -0.2347  0.7594
    23 H(1)   Bbb    -0.0020    -1.076    -0.384    -0.359  0.4985  0.6318  0.5936
              Bcc     0.0069     3.700     1.320     1.234 -0.6191  0.7388 -0.2664
 
              Baa    -0.0015    -0.824    -0.294    -0.275  0.2769 -0.4555  0.8461
    24 H(1)   Bbb     0.0002     0.111     0.040     0.037  0.4133  0.8513  0.3231
              Bcc     0.0013     0.713     0.254     0.238  0.8675 -0.2602 -0.4240
 
              Baa    -0.0040    -2.150    -0.767    -0.717  0.3861 -0.1024  0.9168
    25 H(1)   Bbb    -0.0026    -1.390    -0.496    -0.464  0.5332  0.8358 -0.1311
              Bcc     0.0066     3.541     1.263     1.181  0.7528 -0.5394 -0.3773
 
              Baa    -0.0230    -3.092    -1.103    -1.031  0.5092 -0.1027  0.8545
    26 C(13)  Bbb    -0.0145    -1.944    -0.694    -0.648  0.2394  0.9706 -0.0260
              Bcc     0.0375     5.035     1.797     1.680  0.8267 -0.2178 -0.5188
 
              Baa    -0.0030    -1.589    -0.567    -0.530  0.1676  0.1571  0.9733
    27 H(1)   Bbb     0.0009     0.498     0.178     0.166  0.8712  0.4384 -0.2208
              Bcc     0.0020     1.091     0.389     0.364 -0.4614  0.8849 -0.0634
 
              Baa    -0.0019    -0.254    -0.091    -0.085 -0.3026 -0.1574  0.9400
    28 C(13)  Bbb    -0.0010    -0.129    -0.046    -0.043 -0.0246  0.9872  0.1574
              Bcc     0.0029     0.384     0.137     0.128  0.9528 -0.0245  0.3026
 
              Baa    -0.0359    -4.811    -1.717    -1.605  0.7697 -0.1832 -0.6115
    29 C(13)  Bbb     0.0170     2.281     0.814     0.761  0.2175  0.9759 -0.0186
              Bcc     0.0189     2.530     0.903     0.844  0.6002 -0.1187  0.7910
 
              Baa    -0.0012    -0.649    -0.232    -0.216  0.1322  0.9359 -0.3266
    30 H(1)   Bbb    -0.0007    -0.395    -0.141    -0.132 -0.1531  0.3448  0.9261
              Bcc     0.0020     1.043     0.372     0.348  0.9793 -0.0724  0.1888
 
              Baa    -0.0044    -2.373    -0.847    -0.792 -0.2612 -0.2324  0.9369
    31 H(1)   Bbb    -0.0041    -2.188    -0.781    -0.730  0.0376  0.9674  0.2504
              Bcc     0.0085     4.562     1.628     1.522  0.9646 -0.1006  0.2439
 
              Baa    -0.0008    -0.112    -0.040    -0.037  0.3500  0.9072 -0.2334
    32 C(13)  Bbb    -0.0005    -0.070    -0.025    -0.023 -0.4498  0.3814  0.8076
              Bcc     0.0014     0.182     0.065     0.061  0.8217 -0.1777  0.5416
 
              Baa    -0.0007    -0.360    -0.129    -0.120 -0.4999 -0.5797  0.6435
    33 H(1)   Bbb    -0.0004    -0.231    -0.083    -0.077 -0.1736  0.7950  0.5813
              Bcc     0.0011     0.592     0.211     0.197  0.8485 -0.1789  0.4981
 
              Baa    -0.0004    -0.212    -0.076    -0.071 -0.1849 -0.1838  0.9654
    34 H(1)   Bbb    -0.0002    -0.116    -0.041    -0.039 -0.0614  0.9826  0.1753
              Bcc     0.0006     0.328     0.117     0.109  0.9808  0.0268  0.1930
 
              Baa    -0.0006    -0.319    -0.114    -0.106 -0.5213 -0.3436  0.7811
    35 H(1)   Bbb    -0.0002    -0.126    -0.045    -0.042 -0.0933  0.9328  0.3481
              Bcc     0.0008     0.445     0.159     0.148  0.8483 -0.1086  0.5183
 
              Baa    -0.0015    -0.809    -0.289    -0.270 -0.1442  0.9601  0.2396
    36 H(1)   Bbb    -0.0010    -0.507    -0.181    -0.169 -0.5726 -0.2785  0.7711
              Bcc     0.0025     1.316     0.470     0.439  0.8071 -0.0260  0.5899
 
              Baa    -0.0007    -0.375    -0.134    -0.125  0.1544 -0.2898  0.9446
    37 H(1)   Bbb    -0.0004    -0.239    -0.085    -0.080  0.0325  0.9570  0.2883
              Bcc     0.0012     0.614     0.219     0.205  0.9875  0.0138 -0.1572
 
              Baa    -0.0004     0.031     0.011     0.010  0.1149 -0.0502  0.9921
    38 O(17)  Bbb    -0.0003     0.021     0.007     0.007 -0.0432  0.9975  0.0555
              Bcc     0.0007    -0.052    -0.019    -0.017  0.9924  0.0493 -0.1125
 
              Baa    -0.0004    -0.209    -0.075    -0.070  0.0864 -0.1668  0.9822
    39 H(1)   Bbb    -0.0003    -0.137    -0.049    -0.046  0.0796  0.9839  0.1601
              Bcc     0.0006     0.346     0.124     0.115  0.9931 -0.0643 -0.0983
 

 ---------------------------------------------------------------------------------

 Unable to Open any file for archive entry.
 1\1\GINC-P08R01N33\FOpt\UHF\6-31G(d)\C14H20O5(1-,2)\JL3566\26-Oct-2021
 \1\\# HF/6-31G* Opt=(Z-matrix,MaxCycles=100) Geom=PrintInputOrient\\<q
 mtool> simtype="Geometry optimization" </qmtool> Q1H-ACC-O5-120b\\-1,2
 \C,0,-0.2269999981,-1.5310000181,-0.6560000181\C,0,0.2840000093,-2.911
 9999409,-0.9819999933\C,0,-1.6100000143,-1.4620000124,-0.1850000024\O,
 0,-2.3350000381,-2.4830000401,-0.0659999996\C,0,-2.1180000305,-0.12999
 99952,0.1280000061\O,0,-3.4419999123,0.0240000002,0.5090000033\C,0,-1.
 3279999495,0.9879999757,0.0089999996\O,0,-1.8309999704,2.2200000286,0.
 3880000114\C,0,0.0309999995,0.9350000024,-0.4970000088\O,0,0.722000002
 9,2.0050001144,-0.6690000296\C,0,0.5389999747,-0.3939999938,-0.7929999
 828\C,0,1.9720000029,-0.4300000072,-1.2539999485\H,0,1.0260000229,-3.2
 60999918,-0.2540000081\H,0,-0.5630000234,-3.6010000706,-0.9589999914\H
 ,0,0.7549999952,-2.9479999542,-1.9700000286\C,0,-3.7509999275,-0.63499
 99905,1.7410000563\H,0,-3.5380001068,-1.7020000219,1.6699999571\H,0,-3
 .1830000877,-0.1840000004,2.5659999847\H,0,-4.8179998398,-0.4679999948
 ,1.9090000391\C,0,-2.132999897,3.0239999294,-0.75\H,0,-2.9059998989,2.
 5460000038,-1.3650000095\H,0,-2.5150001049,3.9719998837,-0.3610000014\
 H,0,-1.2300000191,3.2000000477,-1.3400000334\H,0,2.1019999981,-1.17499
 99523,-2.0529999733\H,0,2.2119998932,0.5500000119,-1.6720000505\C,0,2.
 888999939,-0.7829999924,-0.1150000021\H,0,2.8800001144,-1.8339999914,0
 .1790000051\C,0,3.7630000114,1.5349999666,0.3269999921\C,0,3.671000003
 8,0.0529999994,0.5820000172\H,0,4.6760001183,1.7840000391,-0.232999995
 4\H,0,2.8849999905,1.9040000439,-0.2070000023\C,0,4.5430002213,-0.4609
 999955,1.6979999542\H,0,4.4499998093,-1.5460000038,1.8140000105\H,0,5.
 5989999771,-0.2240000069,1.5119999647\H,0,4.2769999504,0.0109999999,2.
 6530001163\H,0,3.8210000992,2.0710000992,1.2819999456\H,10,rAH,9,120.,
 11,0.,0\X,37,1.,10,90.,9,0.,0\O,37,0.9527,38,90.,10,180.,0\H,39,0.9527
 ,37,104.52,38,dih,0\\rAH=4.72261204\dih=-25.23452134\\Version=ES64L-G1
 6RevC.01\State=2-A\HF=-916.0481623\S2=0.899537\S2-1=0.\S2A=0.765468\RM
 SD=8.180e-09\RMSF=8.378e-03\Dipole=1.3092744,-0.782689,0.4499143\Quadr
 upole=-13.7168677,-0.5705374,14.2874052,-16.3128736,7.0459017,1.871407
 9\PG=C01 [X(C14H20O5)]\\@
 The archive entry for this job was punched.


 "A LITTLE BIT GOES A LONG WAY"
 R.S. MULLIKEN AS QUOTED BY K. RUEDENBERG
 Job cpu time:       0 days  1 hours 20 minutes 37.6 seconds.
 Elapsed time:       0 days  0 hours 20 minutes 18.5 seconds.
 File lengths (MBytes):  RWF=    176 Int=      0 D2E=      0 Chk=     16 Scr=      8
 Normal termination of Gaussian 16 at Tue Oct 26 23:36:30 2021.
