 Entering Gaussian System, Link 0=g16
 Initial command:
 /gpfs/loomis/apps/avx/software/Gaussian/16-C.01_AVX/g16/l1.exe "/home/jl3566/scratch60/g16/Gau-66961.inp" -scrdir="/home/jl3566/scratch60/g16/"
 Entering Link 1 = /gpfs/loomis/apps/avx/software/Gaussian/16-C.01_AVX/g16/l1.exe PID=     66962.
  
 Copyright (c) 1988-2019, Gaussian, Inc.  All Rights Reserved.
  
 This is part of the Gaussian(R) 16 program.  It is based on
 the Gaussian(R) 09 system (copyright 2009, Gaussian, Inc.),
 the Gaussian(R) 03 system (copyright 2003, Gaussian, Inc.),
 the Gaussian(R) 98 system (copyright 1998, Gaussian, Inc.),
 the Gaussian(R) 94 system (copyright 1995, Gaussian, Inc.),
 the Gaussian 92(TM) system (copyright 1992, Gaussian, Inc.),
 the Gaussian 90(TM) system (copyright 1990, Gaussian, Inc.),
 the Gaussian 88(TM) system (copyright 1988, Gaussian, Inc.),
 the Gaussian 86(TM) system (copyright 1986, Carnegie Mellon
 University), and the Gaussian 82(TM) system (copyright 1983,
 Carnegie Mellon University). Gaussian is a federally registered
 trademark of Gaussian, Inc.
  
 This software contains proprietary and confidential information,
 including trade secrets, belonging to Gaussian, Inc.
  
 This software is provided under written license and may be
 used, copied, transmitted, or stored only in accord with that
 written license.
  
 The following legend is applicable only to US Government
 contracts under FAR:
  
                    RESTRICTED RIGHTS LEGEND
  
 Use, reproduction and disclosure by the US Government is
 subject to restrictions as set forth in subparagraphs (a)
 and (c) of the Commercial Computer Software - Restricted
 Rights clause in FAR 52.227-19.
  
 Gaussian, Inc.
 340 Quinnipiac St., Bldg. 40, Wallingford CT 06492
  
  
 ---------------------------------------------------------------
 Warning -- This program may not be used in any manner that
 competes with the business of Gaussian, Inc. or will provide
 assistance to any competitor of Gaussian, Inc.  The licensee
 of this program is prohibited from giving any competitor of
 Gaussian, Inc. access to this program.  By using this program,
 the user acknowledges that Gaussian, Inc. is engaged in the
 business of creating and licensing software in the field of
 computational chemistry and represents and warrants to the
 licensee that it is not a competitor of Gaussian, Inc. and that
 it will not use this program in any manner prohibited above.
 ---------------------------------------------------------------
  

 Cite this work as:
 Gaussian 16, Revision C.01,
 M. J. Frisch, G. W. Trucks, H. B. Schlegel, G. E. Scuseria, 
 M. A. Robb, J. R. Cheeseman, G. Scalmani, V. Barone, 
 G. A. Petersson, H. Nakatsuji, X. Li, M. Caricato, A. V. Marenich, 
 J. Bloino, B. G. Janesko, R. Gomperts, B. Mennucci, H. P. Hratchian, 
 J. V. Ortiz, A. F. Izmaylov, J. L. Sonnenberg, D. Williams-Young, 
 F. Ding, F. Lipparini, F. Egidi, J. Goings, B. Peng, A. Petrone, 
 T. Henderson, D. Ranasinghe, V. G. Zakrzewski, J. Gao, N. Rega, 
 G. Zheng, W. Liang, M. Hada, M. Ehara, K. Toyota, R. Fukuda, 
 J. Hasegawa, M. Ishida, T. Nakajima, Y. Honda, O. Kitao, H. Nakai, 
 T. Vreven, K. Throssell, J. A. Montgomery, Jr., J. E. Peralta, 
 F. Ogliaro, M. J. Bearpark, J. J. Heyd, E. N. Brothers, K. N. Kudin, 
 V. N. Staroverov, T. A. Keith, R. Kobayashi, J. Normand, 
 K. Raghavachari, A. P. Rendell, J. C. Burant, S. S. Iyengar, 
 J. Tomasi, M. Cossi, J. M. Millam, M. Klene, C. Adamo, R. Cammi, 
 J. W. Ochterski, R. L. Martin, K. Morokuma, O. Farkas, 
 J. B. Foresman, and D. J. Fox, Gaussian, Inc., Wallingford CT, 2019.
 
 ******************************************
 Gaussian 16:  ES64L-G16RevC.01  3-Jul-2019
                26-Oct-2021 
 ******************************************
 %chk=Q1H-ACC-O2-120b.chk
 %nproc=4
 Will use up to    4 processors via shared memory.
 %mem=4GB
 --------------------------------------------------------------
 # HF/6-31G* Opt=(Z-matrix,MaxCycles=100) Geom=PrintInputOrient
 --------------------------------------------------------------
 1/6=100,10=7,18=40,38=1/1,3;
 2/9=2000,12=2,17=6,18=5,29=3,40=1/2;
 3/5=1,6=6,7=1,11=9,25=1,30=1,71=1/1,2,3;
 4//1;
 5/5=2,38=5/2;
 6/7=2,8=2,9=2,10=2,28=1/1;
 7/29=1/1,2,3,16;
 1/6=100,10=7,18=40/3(2);
 2/9=2000,29=3/2;
 99//99;
 2/9=2000,29=3/2;
 3/5=1,6=6,7=1,11=9,25=1,30=1,71=1/1,2,3;
 4/5=5,16=3,69=1/1;
 5/5=2,38=5/2;
 7//1,2,3,16;
 1/6=100,18=40/3(-5);
 2/9=2000,29=3/2;
 6/7=2,8=2,9=2,10=2,19=2,28=1/1;
 99/9=1/99;
 ------------------------------------------------------------------
 <qmtool> simtype="Geometry optimization" </qmtool> Q1H-ACC-O2-120b
 ------------------------------------------------------------------
 Symbolic Z-matrix:
 Charge = -1 Multiplicity = 2
 C1                   -0.227    -1.531    -0.656 
 C2                    0.284    -2.912    -0.982 
 C3                   -1.61     -1.462    -0.185 
 O4                   -2.335    -2.483    -0.066 
 C5                   -2.118    -0.13      0.128 
 O6                   -3.442     0.024     0.509 
 C7                   -1.328     0.988     0.009 
 O8                   -1.831     2.22      0.388 
 C9                    0.031     0.935    -0.497 
 O10                   0.722     2.005    -0.669 
 C11                   0.539    -0.394    -0.793 
 C12                   1.972    -0.43     -1.254 
 H13                   1.026    -3.261    -0.254 
 H14                  -0.563    -3.601    -0.959 
 H15                   0.755    -2.948    -1.97 
 C16                  -3.751    -0.635     1.741 
 H17                  -3.538    -1.702     1.67 
 H18                  -3.183    -0.184     2.566 
 H19                  -4.818    -0.468     1.909 
 C20                  -2.133     3.024    -0.75 
 H21                  -2.906     2.546    -1.365 
 H22                  -2.515     3.972    -0.361 
 H23                  -1.23      3.2      -1.34 
 H24                   2.102    -1.175    -2.053 
 H25                   2.212     0.55     -1.672 
 C26                   2.889    -0.783    -0.115 
 H27                   2.88     -1.834     0.179 
 C28                   3.763     1.535     0.327 
 C29                   3.671     0.053     0.582 
 H30                   4.676     1.784    -0.233 
 H31                   2.885     1.904    -0.207 
 C32                   4.543    -0.461     1.698 
 H33                   4.45     -1.546     1.814 
 H34                   5.599    -0.224     1.512 
 H35                   4.277     0.011     2.653 
 H36                   3.821     2.071     1.282 
 H1w                  O4   rAH      C3    120.     C5    0.       0
 x                    H1w   1.       O4    90.      C3    0.       0
 Ow                   H1w   0.9527   x     90.      O4    180.     0
 H2w                  Ow    0.9527   H1w   104.52   x    dih      0
       Variables:
  rAH                   2.                       
  dih                   0.                       
 

 GradGradGradGradGradGradGradGradGradGradGradGradGradGradGradGradGradGrad
 Berny optimization.
 Initialization pass.
                       ----------------------------
                       !    Initial Parameters    !
                       ! (Angstroms and Degrees)  !
 ----------------------                            ----------------------
 !      Name          Value   Derivative information (Atomic Units)     !
 ------------------------------------------------------------------------
 !       rAH         2.0      estimate D2E/DX2                          !
 !       dih         0.0      estimate D2E/DX2                          !
 ------------------------------------------------------------------------
 Trust Radius=3.00D-01 FncErr=1.00D-07 GrdErr=1.00D-07 EigMax=2.50D+02 EigMin=1.00D-04
 Number of steps in this run=    100 maximum allowed number of steps=    100.
 GradGradGradGradGradGradGradGradGradGradGradGradGradGradGradGradGradGrad

 ---------------------------------------------------------------------------------------------------
                            Z-MATRIX (ANGSTROMS AND DEGREES)
   CD    Cent   Atom    N1       Length/X        N2       Alpha/Y        N3        Beta/Z          J
 ---------------------------------------------------------------------------------------------------
      1      1  C        0  -0.227000         -1.531000         -0.656000
      2      2  C        0   0.284000         -2.912000         -0.982000
      3      3  C        0  -1.610000         -1.462000         -0.185000
      4      4  O        0  -2.335000         -2.483000         -0.066000
      5      5  C        0  -2.118000         -0.130000          0.128000
      6      6  O        0  -3.442000          0.024000          0.509000
      7      7  C        0  -1.328000          0.988000          0.009000
      8      8  O        0  -1.831000          2.220000          0.388000
      9      9  C        0   0.031000          0.935000         -0.497000
     10     10  O        0   0.722000          2.005000         -0.669000
     11     11  C        0   0.539000         -0.394000         -0.793000
     12     12  C        0   1.972000         -0.430000         -1.254000
     13     13  H        0   1.026000         -3.261000         -0.254000
     14     14  H        0  -0.563000         -3.601000         -0.959000
     15     15  H        0   0.755000         -2.948000         -1.970000
     16     16  C        0  -3.751000         -0.635000          1.741000
     17     17  H        0  -3.538000         -1.702000          1.670000
     18     18  H        0  -3.183000         -0.184000          2.566000
     19     19  H        0  -4.818000         -0.468000          1.909000
     20     20  C        0  -2.133000          3.024000         -0.750000
     21     21  H        0  -2.906000          2.546000         -1.365000
     22     22  H        0  -2.515000          3.972000         -0.361000
     23     23  H        0  -1.230000          3.200000         -1.340000
     24     24  H        0   2.102000         -1.175000         -2.053000
     25     25  H        0   2.212000          0.550000         -1.672000
     26     26  C        0   2.889000         -0.783000         -0.115000
     27     27  H        0   2.880000         -1.834000          0.179000
     28     28  C        0   3.763000          1.535000          0.327000
     29     29  C        0   3.671000          0.053000          0.582000
     30     30  H        0   4.676000          1.784000         -0.233000
     31     31  H        0   2.885000          1.904000         -0.207000
     32     32  C        0   4.543000         -0.461000          1.698000
     33     33  H        0   4.450000         -1.546000          1.814000
     34     34  H        0   5.599000         -0.224000          1.512000
     35     35  H        0   4.277000          0.011000          2.653000
     36     36  H        0   3.821000          2.071000          1.282000
     37     37  H        4   2.000000(    36)      3  120.000(    74)      5    0.000(   111)      0
     38         X       37   1.000000(    37)      4   90.000(    75)      3    0.000(   112)      0
     39     38  O       37   0.952700(    38)     38   90.000(    76)      4  180.000(   113)      0
     40     39  H       39   0.952700(    39)     37  104.520(    77)     38    0.000(   114)      0
 ---------------------------------------------------------------------------------------------------
                         Z-Matrix orientation:                         
 ---------------------------------------------------------------------
 Center     Atomic      Atomic             Coordinates (Angstroms)
 Number     Number       Type             X           Y           Z
 ---------------------------------------------------------------------
      1          6           0       -0.227000   -1.531000   -0.656000
      2          6           0        0.284000   -2.912000   -0.982000
      3          6           0       -1.610000   -1.462000   -0.185000
      4          8           0       -2.335000   -2.483000   -0.066000
      5          6           0       -2.118000   -0.130000    0.128000
      6          8           0       -3.442000    0.024000    0.509000
      7          6           0       -1.328000    0.988000    0.009000
      8          8           0       -1.831000    2.220000    0.388000
      9          6           0        0.031000    0.935000   -0.497000
     10          8           0        0.722000    2.005000   -0.669000
     11          6           0        0.539000   -0.394000   -0.793000
     12          6           0        1.972000   -0.430000   -1.254000
     13          1           0        1.026000   -3.261000   -0.254000
     14          1           0       -0.563000   -3.601000   -0.959000
     15          1           0        0.755000   -2.948000   -1.970000
     16          6           0       -3.751000   -0.635000    1.741000
     17          1           0       -3.538000   -1.702000    1.670000
     18          1           0       -3.183000   -0.184000    2.566000
     19          1           0       -4.818000   -0.468000    1.909000
     20          6           0       -2.133000    3.024000   -0.750000
     21          1           0       -2.906000    2.546000   -1.365000
     22          1           0       -2.515000    3.972000   -0.361000
     23          1           0       -1.230000    3.200000   -1.340000
     24          1           0        2.102000   -1.175000   -2.053000
     25          1           0        2.212000    0.550000   -1.672000
     26          6           0        2.889000   -0.783000   -0.115000
     27          1           0        2.880000   -1.834000    0.179000
     28          6           0        3.763000    1.535000    0.327000
     29          6           0        3.671000    0.053000    0.582000
     30          1           0        4.676000    1.784000   -0.233000
     31          1           0        2.885000    1.904000   -0.207000
     32          6           0        4.543000   -0.461000    1.698000
     33          1           0        4.450000   -1.546000    1.814000
     34          1           0        5.599000   -0.224000    1.512000
     35          1           0        4.277000    0.011000    2.653000
     36          1           0        3.821000    2.071000    1.282000
     37          1           0       -4.224616   -2.299873    0.563140
     38         -1           0       -4.104563   -1.309747    0.635517
     39          8           0       -5.124734   -2.212640    0.862831
     40          1           0       -5.239688   -1.277605    1.004720
 ---------------------------------------------------------------------
                    Distance matrix (angstroms):
                    1          2          3          4          5
     1  C    0.000000
     2  C    1.508164   0.000000
     3  C    1.462632   2.514944   0.000000
     4  O    2.387063   2.807536   1.257866   0.000000
     5  C    2.480592   3.839431   1.459540   2.370935   0.000000
     6  O    3.756524   4.972550   2.458873   2.800201   1.386309
     7  C    2.828389   4.334815   2.473795   3.614902   1.374112
     8  O    4.211028   5.717303   3.732867   4.751667   2.381695
     9  C    2.484552   3.885697   2.921615   4.179287   2.478518
    10  O    3.661157   4.946383   4.206254   5.463607   3.641296
    11  C    1.377786   2.537926   2.475579   3.626614   2.824462
    12  C    2.530890   3.013910   3.877952   4.916951   4.327589
    13  H    2.173594   1.096517   3.192124   3.454989   4.453518
    14  H    2.118869   1.092089   2.504118   2.277577   3.955684
    15  H    2.167674   1.095117   3.314762   3.659172   4.538376
    16  C    4.355112   5.374075   2.996212   2.947102   2.350209
    17  H    4.049968   4.806754   2.686226   2.251858   2.620181
    18  H    4.575328   5.661305   3.416960   3.596099   2.661012
    19  H    5.365303   6.353064   3.957794   3.758476   3.252108
    20  C    4.938593   6.413408   4.551588   5.552991   3.273962
    21  H    4.929670   6.333447   4.374481   5.225350   3.164012
    22  H    5.966991   7.457177   5.511656   6.464244   4.150076
    23  H    4.884284   6.306893   4.817953   5.927950   3.745994
    24  H    2.739085   2.733008   4.165422   5.034481   4.863865
    25  H    3.363263   4.022279   4.568041   5.696800   4.738280
    26  C    3.249868   3.474242   4.550488   5.493867   5.055245
    27  H    3.231483   3.041253   4.520064   5.260936   5.280741
    28  C    5.127060   5.795924   6.173596   7.313301   6.115389
    29  C    4.385898   4.765406   5.547294   6.551583   5.809658
    30  H    5.933596   6.473259   7.074787   8.209099   7.067684
    31  H    4.656755   5.528081   5.615645   6.820121   5.411043
    32  C    5.425783   5.597221   6.512074   7.382890   6.851524
    33  H    5.289183   5.199916   6.381744   7.102717   6.927213
    34  H    6.352224   6.457136   7.508804   8.398900   7.840688
    35  H    5.797694   6.140131   6.699309   7.571759   6.876884
    36  H    5.754698   6.516621   6.643037   7.775111   6.438000
    37  H    4.249517   4.805182   2.845691   2.000000   3.055409
    38  X    4.092977   4.943992   2.630451   2.236068   2.365546
    39  O    5.172937   5.757335   3.743630   2.952700   3.730659
    40  H    5.286705   6.093393   3.824143   3.322143   3.439560
                    6          7          8          9         10
     6  O    0.000000
     7  C    2.376614   0.000000
     8  O    2.726239   1.383645   0.000000
     9  C    3.728765   1.451112   2.429299   0.000000
    10  O    4.759300   2.386729   2.771513   1.285288   0.000000
    11  C    4.209310   2.457400   3.720841   1.453245   2.409163
    12  C    5.711889   3.807347   4.917466   2.490734   2.798920
    13  H    5.597894   4.864616   6.214175   4.319200   5.291068
    14  H    4.856366   4.751965   6.107886   4.597997   5.758695
    15  H    5.709031   4.873133   6.241457   4.215637   5.121123
    16  C    1.430939   3.391885   3.697030   4.666591   5.725856
    17  H    2.082358   3.857346   4.465362   4.938362   6.112313
    18  H    2.083649   3.369400   3.514371   4.578638   5.523221
    19  H    2.023719   4.232025   4.296621   5.591963   6.591920
    20  C    3.506931   2.317197   1.425715   3.018414   3.032482
    21  H    3.187422   2.608702   2.082045   3.460450   3.733561
    22  H    4.147642   3.232665   2.024441   3.965348   3.800279
    23  H    4.289373   2.592749   2.075472   2.725985   2.385072
    24  H    6.223936   4.549210   5.740470   3.340999   3.732594
    25  H    6.082857   3.943248   4.835116   2.507112   2.311522
    26  C    6.412658   4.575468   5.616887   3.356428   3.574318
    27  H    6.597632   5.069502   6.218691   4.030030   4.484862
    28  C    7.363985   5.130167   5.636114   3.868695   3.234285
    29  C    7.113434   5.117866   5.916547   3.897661   3.751254
    30  H    8.339670   6.061369   6.551091   4.729326   3.984100
    31  H    6.639125   4.316837   4.763878   3.027933   2.214094
    32  C    8.087594   6.278612   7.037879   5.208165   5.126781
    33  H    8.151784   6.562352   7.461045   5.569887   5.716019
    34  H    9.099846   7.191056   7.901988   6.031748   5.788811
    35  H    8.011234   6.273858   6.878777   5.367010   5.258303
    36  H    7.585440   5.413467   5.724207   4.338138   3.662589
    37  H    2.452713   4.416736   5.117550   5.449639   6.672264
    38  X    1.494616   3.658068   4.205885   4.839872   5.998752
    39  O    2.821232   5.038682   5.542783   6.191799   7.370162
    40  H    2.274115   4.628794   4.922676   5.910240   7.008464
                   11         12         13         14         15
    11  C    0.000000
    12  C    1.505758   0.000000
    13  H    2.957597   3.147932   0.000000
    14  H    3.395116   4.070441   1.771312   0.000000
    15  H    2.820443   2.886879   1.765238   1.784840   0.000000
    16  C    4.988320   6.462567   5.804794   5.123524   6.278975
    17  H    4.939551   6.366150   5.192529   4.400962   5.764717
    18  H    5.017994   6.420821   5.927564   5.564703   6.612325
    19  H    6.000311   7.490668   6.828745   6.012166   7.228787
    20  C    4.338681   5.388428   7.051703   6.811696   6.744904
    21  H    4.564954   5.715224   7.100436   6.590910   6.629704
    22  H    5.345605   6.348876   8.053969   7.843356   7.821009
    23  H    4.042945   4.841188   6.929174   6.844242   6.491150
    24  H    2.154189   1.100148   2.957291   3.766237   2.228189
    25  H    2.112512   1.092119   4.235687   5.043788   3.801007
    26  C    2.476591   1.504267   3.103317   4.535390   3.561208
    27  H    2.915247   2.202083   2.379314   4.033805   3.220997
    28  C    3.920410   3.093294   5.552508   6.837146   5.866989
    29  C    3.449617   2.547702   4.321749   5.801134   4.901200
    30  H    4.708721   3.640859   6.226955   7.548008   6.386175
    31  H    3.335853   2.716125   5.489564   6.539055   5.584530
    32  C    4.716099   3.914755   4.900979   6.556713   5.829952
    33  H    4.839367   4.098605   4.352198   6.086273   5.471497
    34  H    5.562870   4.565996   5.766667   7.448504   6.558112
    35  H    5.100155   4.557648   5.452122   7.036952   6.521679
    36  H    4.599280   4.013116   6.213014   7.510867   6.720582
    37  H    5.306929   6.722832   5.400042   4.173400   5.624361
    38  X    4.943878   6.424083   5.560692   4.509433   5.752212
    39  O    6.174715   7.617244   6.338604   5.104511   6.567873
    40  H    6.116028   7.604518   6.691568   5.579048   6.897497
                   16         17         18         19         20
    16  C    0.000000
    17  H    1.090366   0.000000
    18  H    1.098476   1.798100   0.000000
    19  H    1.092978   1.793956   1.784805   0.000000
    20  C    4.712885   5.492313   4.731767   5.145247   0.000000
    21  H    4.525486   5.258912   4.793995   4.843451   1.097378
    22  H    5.212538   6.112754   5.126976   5.492750   1.093595
    23  H    5.527678   6.198110   5.524717   6.073217   1.092925
    24  H    6.995973   6.778500   7.088615   8.005229   6.104476
    25  H    6.972099   7.021607   6.899668   7.954922   5.084268
    26  C    6.896103   6.733284   6.664514   7.974562   6.333795
    27  H    6.917196   6.590238   6.721625   8.007375   7.042256
    28  C    7.947861   8.098544   7.497666   8.952558   6.175748
    29  C    7.543388   7.498897   7.139310   8.607874   6.654884
    30  H    8.986800   9.123782   8.571541   9.989780   6.940272
    31  H    7.367341   7.601401   6.990701   8.333069   5.170065
    32  C    8.295937   8.175783   7.779539   9.363380   7.918769
    33  H    8.251766   7.990821   7.789945   9.330966   8.413969
    34  H    9.361830   9.257117   8.845114  10.427417   8.686194
    35  H    8.105421   8.060700   7.463055   9.137943   7.857905
    36  H    8.054086   8.278947   7.469250   9.026183   6.362967
    37  H    2.093673   1.433189   3.094080   2.349298   5.868800
    38  X    1.342529   1.242985   2.417302   1.685019   4.958637
    39  O    2.268761   1.852026   3.284280   2.057262   6.242924
    40  H    1.780799   1.875754   2.804200   1.284914   5.588771
                   21         22         23         24         25
    21  H    0.000000
    22  H    1.787281   0.000000
    23  H    1.799254   1.790433   0.000000
    24  H    6.276882   7.118368   5.545378   0.000000
    25  H    5.502017   5.981081   4.356614   1.769996   0.000000
    26  C    6.799027   7.202344   5.859273   2.128116   2.158580
    27  H    7.419308   7.944008   6.673876   2.453852   3.091259
    28  C    6.954175   6.769461   5.520975   3.970821   2.715111
    29  C    7.298136   7.383387   6.133310   3.303478   2.730606
    30  H    7.703817   7.517593   6.173438   4.323605   3.108822
    31  H    5.940438   5.784491   4.460553   3.674377   2.105343
    32  C    8.597187   8.585240   7.480635   4.531918   4.220496
    33  H    8.997846   9.148233   8.045783   4.539211   4.642635
    34  H    9.396013   9.324781   8.154319   5.083565   4.712611
    35  H    8.611971   8.420510   7.512711   5.318238   4.822901
    36  H    7.244637   6.816021   5.801907   4.961220   3.691672
    37  H    5.379494   6.566065   6.545095   6.937982   7.385638
    38  X    4.506152   5.605052   5.701193   6.765183   6.977267
    39  O    5.703566   6.823360   7.022684   7.861581   8.239248
    40  H    5.067705   6.070212   6.451687   7.953651   8.126046
                   26         27         28         29         30
    26  C    0.000000
    27  H    1.091384   0.000000
    28  C    2.516419   3.485937   0.000000
    29  C    1.340235   2.085392   1.506590   0.000000
    30  H    3.129981   4.060207   1.099623   2.161160   0.000000
    31  H    2.688578   3.757880   1.091880   2.160213   1.795204
    32  C    2.475150   2.637813   2.544024   1.506664   2.964199
    33  H    2.596138   2.284966   3.489369   2.163669   3.915378
    34  H    3.209939   3.429570   2.805210   2.158428   2.815851
    35  H    3.196687   3.387670   2.827905   2.158250   3.410532
    36  H    3.311427   4.165467   1.096670   2.141220   1.763128
    37  H    7.305088   7.130229   8.863634   8.238757   9.825112
    38  X    7.053414   7.019072   8.371757   7.894259   9.350073
    39  O    8.198778   8.042808   9.660421   9.087185  10.640882
    40  H    8.220340   8.180509   9.456133   9.019400  10.451137
                   31         32         33         34         35
    31  H    0.000000
    32  C    3.459944   0.000000
    33  H    4.293736   1.095139   0.000000
    34  H    3.853458   1.098135   1.777383   0.000000
    35  H    3.701448   1.097982   1.777104   1.762042   0.000000
    36  H    1.766665   2.665589   3.709630   2.912252   2.516183
    37  H    8.295318   9.029975   8.796700  10.085287   9.054563
    38  X    7.738992   8.753833   8.638586   9.803377   8.721537
    39  O    9.069019   9.860570   9.644929  10.925868   9.825573
    40  H    8.809168   9.841163   9.727129  10.901586   9.743957
                   36         37         38         39         40
    36  H    0.000000
    37  H    9.184401   0.000000
    38  X    8.640714   1.000000   0.000000
    39  O    9.927308   0.952700   1.381172   0.000000
    40  H    9.663649   1.506783   1.194092   0.952700   0.000000
 Stoichiometry    C14H20O5(1-,2)
 Framework group  C1[X(C14H20O5)]
 Deg. of freedom   111
 Full point group                 C1      NOp   1
 Largest Abelian subgroup         C1      NOp   1
 Largest concise Abelian subgroup C1      NOp   1
                         Standard orientation:                         
 ---------------------------------------------------------------------
 Center     Atomic      Atomic             Coordinates (Angstroms)
 Number     Number       Type             X           Y           Z
 ---------------------------------------------------------------------
      1          6           0       -0.036643   -1.358528   -0.769778
      2          6           0        0.294766   -2.783072   -1.137744
      3          6           0       -1.415470   -1.118232   -0.345062
      4          8           0       -2.276763   -2.033673   -0.296377
      5          6           0       -1.750040    0.257903    0.007885
      6          8           0       -3.055242    0.577683    0.348534
      7          6           0       -0.811220    1.260413   -0.034273
      8          8           0       -1.157124    2.534342    0.380371
      9          6           0        0.547452    1.040602   -0.494077
     10          8           0        1.383909    2.011258   -0.594728
     11          6           0        0.881736   -0.333219   -0.829920
     12          6           0        2.314135   -0.548113   -1.241452
     13          1           0        0.952140   -3.258571   -0.400106
     14          1           0       -0.638251   -3.349442   -1.174666
     15          1           0        0.796386   -2.845388   -2.109225
     16          6           0       -3.500915   -0.079556    1.538911
     17          1           0       -3.432207   -1.162172    1.428818
     18          1           0       -2.910996    0.256934    2.402288
     19          1           0       -4.541267    0.225964    1.676488
     20          6           0       -1.300390    3.415481   -0.731264
     21          1           0       -2.105466    3.072361   -1.393351
     22          1           0       -1.565528    4.391298   -0.314813
     23          1           0       -0.358552    3.488258   -1.280928
     24          1           0        2.374131   -1.272562   -2.067224
     25          1           0        2.701953    0.404955   -1.607490
     26          6           0        3.127439   -1.067470   -0.087492
     27          1           0        2.963688   -2.117793    0.159746
     28          6           0        4.289645    1.089574    0.485919
     29          6           0        3.986741   -0.374417    0.672446
     30          1           0        5.250081    1.232072   -0.030247
     31          1           0        3.492457    1.596091   -0.061925
     32          6           0        4.734554   -1.046051    1.794818
     33          1           0        4.490289   -2.111616    1.859899
     34          1           0        5.819664   -0.949504    1.656559
     35          1           0        4.496468   -0.579117    2.759625
     36          1           0        4.380979    1.575305    1.464902
     37          1           0       -4.148014   -1.616858    0.273434
     38          8           0       -5.039384   -1.418308    0.544864
     39          1           0       -5.031867   -0.482517    0.723403
 ---------------------------------------------------------------------
 Rotational constants (GHZ):           0.5543321           0.2249020           0.1826150
 Standard basis: 6-31G(d) (6D, 7F)
 There are   325 symmetry adapted cartesian basis functions of A   symmetry.
 There are   325 symmetry adapted basis functions of A   symmetry.
   325 basis functions,   612 primitive gaussians,   325 cartesian basis functions
    73 alpha electrons       72 beta electrons
       nuclear repulsion energy      1511.5496678862 Hartrees.
 NAtoms=   39 NActive=   39 NUniq=   39 SFac= 1.00D+00 NAtFMM=   60 NAOKFM=F Big=F
 Integral buffers will be    131072 words long.
 Raffenetti 2 integral format.
 Two-electron integral symmetry is turned on.
 One-electron integrals computed using PRISM.
 NBasis=   325 RedAO= T EigKep=  3.07D-04  NBF=   325
 NBsUse=   325 1.00D-06 EigRej= -1.00D+00 NBFU=   325
 ExpMin= 1.61D-01 ExpMax= 5.48D+03 ExpMxC= 8.25D+02 IAcc=3 IRadAn=         5 AccDes= 0.00D+00
 Harris functional with IExCor=  205 and IRadAn=       5 diagonalized for initial guess.
 HarFok:  IExCor=  205 AccDes= 0.00D+00 IRadAn=         5 IDoV= 1 UseB2=F ITyADJ=14
 ICtDFT=  3500011 ScaDFX=  1.000000  1.000000  1.000000  1.000000
 FoFCou: FMM=F IPFlag=           0 FMFlag=      100000 FMFlg1=           0
         NFxFlg=           0 DoJE=T BraDBF=F KetDBF=T FulRan=T
         wScrn=  0.000000 ICntrl=       500 IOpCl=  0 I1Cent=   200000004 NGrid=           0
         NMat0=    1 NMatS0=      1 NMatT0=    0 NMatD0=    1 NMtDS0=    0 NMtDT0=    0
 Petite list used in FoFCou.
 Initial guess <Sx>= 0.0000 <Sy>= 0.0000 <Sz>= 0.5000 <S**2>= 0.7500 S= 0.5000
 Requested convergence on RMS density matrix=1.00D-08 within 128 cycles.
 Requested convergence on MAX density matrix=1.00D-06.
 Requested convergence on             energy=1.00D-06.
 No special actions if energy rises.
 Integral accuracy reduced to 1.0D-05 until final iterations.
 Initial convergence to 1.0D-05 achieved.  Increase integral accuracy.
 Restarting incremental Fock formation.
 SCF Done:  E(UHF) =  -915.987134664     A.U. after   48 cycles
            NFock= 48  Conv=0.19D-08     -V/T= 2.0016
 <Sx>= 0.0000 <Sy>= 0.0000 <Sz>= 0.5000 <S**2>= 0.8715 S= 0.5590
 <L.S>=  0.00000000000    
 Annihilation of the first spin contaminant:
 S**2 before annihilation     0.8715,   after     0.7588

 **********************************************************************

            Population analysis using the SCF Density.

 **********************************************************************

 Orbital symmetries:
 Alpha Orbitals:
       Occupied  (A) (A) (A) (A) (A) (A) (A) (A) (A) (A) (A) (A)
                 (A) (A) (A) (A) (A) (A) (A) (A) (A) (A) (A) (A)
                 (A) (A) (A) (A) (A) (A) (A) (A) (A) (A) (A) (A)
                 (A) (A) (A) (A) (A) (A) (A) (A) (A) (A) (A) (A)
                 (A) (A) (A) (A) (A) (A) (A) (A) (A) (A) (A) (A)
                 (A) (A) (A) (A) (A) (A) (A) (A) (A) (A) (A) (A)
                 (A)
       Virtual   (A) (A) (A) (A) (A) (A) (A) (A) (A) (A) (A) (A)
                 (A) (A) (A) (A) (A) (A) (A) (A) (A) (A) (A) (A)
                 (A) (A) (A) (A) (A) (A) (A) (A) (A) (A) (A) (A)
                 (A) (A) (A) (A) (A) (A) (A) (A) (A) (A) (A) (A)
                 (A) (A) (A) (A) (A) (A) (A) (A) (A) (A) (A) (A)
                 (A) (A) (A) (A) (A) (A) (A) (A) (A) (A) (A) (A)
                 (A) (A) (A) (A) (A) (A) (A) (A) (A) (A) (A) (A)
                 (A) (A) (A) (A) (A) (A) (A) (A) (A) (A) (A) (A)
                 (A) (A) (A) (A) (A) (A) (A) (A) (A) (A) (A) (A)
                 (A) (A) (A) (A) (A) (A) (A) (A) (A) (A) (A) (A)
                 (A) (A) (A) (A) (A) (A) (A) (A) (A) (A) (A) (A)
                 (A) (A) (A) (A) (A) (A) (A) (A) (A) (A) (A) (A)
                 (A) (A) (A) (A) (A) (A) (A) (A) (A) (A) (A) (A)
                 (A) (A) (A) (A) (A) (A) (A) (A) (A) (A) (A) (A)
                 (A) (A) (A) (A) (A) (A) (A) (A) (A) (A) (A) (A)
                 (A) (A) (A) (A) (A) (A) (A) (A) (A) (A) (A) (A)
                 (A) (A) (A) (A) (A) (A) (A) (A) (A) (A) (A) (A)
                 (A) (A) (A) (A) (A) (A) (A) (A) (A) (A) (A) (A)
                 (A) (A) (A) (A) (A) (A) (A) (A) (A) (A) (A) (A)
                 (A) (A) (A) (A) (A) (A) (A) (A) (A) (A) (A) (A)
                 (A) (A) (A) (A) (A) (A) (A) (A) (A) (A) (A) (A)
 Beta  Orbitals:
       Occupied  (A) (A) (A) (A) (A) (A) (A) (A) (A) (A) (A) (A)
                 (A) (A) (A) (A) (A) (A) (A) (A) (A) (A) (A) (A)
                 (A) (A) (A) (A) (A) (A) (A) (A) (A) (A) (A) (A)
                 (A) (A) (A) (A) (A) (A) (A) (A) (A) (A) (A) (A)
                 (A) (A) (A) (A) (A) (A) (A) (A) (A) (A) (A) (A)
                 (A) (A) (A) (A) (A) (A) (A) (A) (A) (A) (A) (A)
       Virtual   (A) (A) (A) (A) (A) (A) (A) (A) (A) (A) (A) (A)
                 (A) (A) (A) (A) (A) (A) (A) (A) (A) (A) (A) (A)
                 (A) (A) (A) (A) (A) (A) (A) (A) (A) (A) (A) (A)
                 (A) (A) (A) (A) (A) (A) (A) (A) (A) (A) (A) (A)
                 (A) (A) (A) (A) (A) (A) (A) (A) (A) (A) (A) (A)
                 (A) (A) (A) (A) (A) (A) (A) (A) (A) (A) (A) (A)
                 (A) (A) (A) (A) (A) (A) (A) (A) (A) (A) (A) (A)
                 (A) (A) (A) (A) (A) (A) (A) (A) (A) (A) (A) (A)
                 (A) (A) (A) (A) (A) (A) (A) (A) (A) (A) (A) (A)
                 (A) (A) (A) (A) (A) (A) (A) (A) (A) (A) (A) (A)
                 (A) (A) (A) (A) (A) (A) (A) (A) (A) (A) (A) (A)
                 (A) (A) (A) (A) (A) (A) (A) (A) (A) (A) (A) (A)
                 (A) (A) (A) (A) (A) (A) (A) (A) (A) (A) (A) (A)
                 (A) (A) (A) (A) (A) (A) (A) (A) (A) (A) (A) (A)
                 (A) (A) (A) (A) (A) (A) (A) (A) (A) (A) (A) (A)
                 (A) (A) (A) (A) (A) (A) (A) (A) (A) (A) (A) (A)
                 (A) (A) (A) (A) (A) (A) (A) (A) (A) (A) (A) (A)
                 (A) (A) (A) (A) (A) (A) (A) (A) (A) (A) (A) (A)
                 (A) (A) (A) (A) (A) (A) (A) (A) (A) (A) (A) (A)
                 (A) (A) (A) (A) (A) (A) (A) (A) (A) (A) (A) (A)
                 (A) (A) (A) (A) (A) (A) (A) (A) (A) (A) (A) (A)
                 (A)
 The electronic state is 2-A.
 Alpha  occ. eigenvalues --  -20.45230 -20.44602 -20.40737 -20.39260 -20.37568
 Alpha  occ. eigenvalues --  -11.15696 -11.15485 -11.15421 -11.15313 -11.15031
 Alpha  occ. eigenvalues --  -11.14602 -11.12839 -11.12599 -11.11332 -11.10715
 Alpha  occ. eigenvalues --  -11.10647 -11.10566 -11.09897 -11.09655  -1.27562
 Alpha  occ. eigenvalues --   -1.25458  -1.21151  -1.20726  -1.20248  -1.00517
 Alpha  occ. eigenvalues --   -0.98079  -0.91985  -0.88458  -0.84062  -0.83364
 Alpha  occ. eigenvalues --   -0.82360  -0.79954  -0.76730  -0.74730  -0.65387
 Alpha  occ. eigenvalues --   -0.64688  -0.60963  -0.59576  -0.57857  -0.54800
 Alpha  occ. eigenvalues --   -0.53970  -0.53030  -0.52156  -0.50880  -0.49802
 Alpha  occ. eigenvalues --   -0.49301  -0.48668  -0.48025  -0.46675  -0.46250
 Alpha  occ. eigenvalues --   -0.45300  -0.44218  -0.43556  -0.43038  -0.42173
 Alpha  occ. eigenvalues --   -0.41445  -0.40809  -0.40691  -0.40210  -0.39415
 Alpha  occ. eigenvalues --   -0.38752  -0.37802  -0.37717  -0.36054  -0.35652
 Alpha  occ. eigenvalues --   -0.33044  -0.30592  -0.28547  -0.27912  -0.26162
 Alpha  occ. eigenvalues --   -0.22512  -0.19137  -0.11089
 Alpha virt. eigenvalues --    0.26822   0.29501   0.31700   0.33176   0.35156
 Alpha virt. eigenvalues --    0.35989   0.37754   0.38383   0.39654   0.40661
 Alpha virt. eigenvalues --    0.40976   0.41703   0.42644   0.42819   0.43479
 Alpha virt. eigenvalues --    0.43858   0.45216   0.45566   0.45749   0.46587
 Alpha virt. eigenvalues --    0.47462   0.49849   0.50232   0.50476   0.50664
 Alpha virt. eigenvalues --    0.51856   0.53726   0.55467   0.56928   0.57955
 Alpha virt. eigenvalues --    0.58984   0.62069   0.63977   0.64146   0.67643
 Alpha virt. eigenvalues --    0.69023   0.71533   0.73837   0.74530   0.76151
 Alpha virt. eigenvalues --    0.80140   0.81680   0.82562   0.84243   0.85639
 Alpha virt. eigenvalues --    0.86513   0.87620   0.88274   0.88860   0.89563
 Alpha virt. eigenvalues --    0.90380   0.90797   0.92137   0.93199   0.94849
 Alpha virt. eigenvalues --    0.95050   0.96769   0.97448   0.98487   1.01346
 Alpha virt. eigenvalues --    1.01968   1.03785   1.05573   1.05696   1.06765
 Alpha virt. eigenvalues --    1.07158   1.09012   1.09543   1.10364   1.10789
 Alpha virt. eigenvalues --    1.10966   1.11961   1.14181   1.14512   1.15703
 Alpha virt. eigenvalues --    1.17636   1.18878   1.20028   1.20820   1.22935
 Alpha virt. eigenvalues --    1.23160   1.23390   1.24539   1.24589   1.25982
 Alpha virt. eigenvalues --    1.26317   1.26842   1.27018   1.27126   1.27963
 Alpha virt. eigenvalues --    1.28925   1.29628   1.30459   1.30634   1.32265
 Alpha virt. eigenvalues --    1.32617   1.33328   1.33497   1.34859   1.35170
 Alpha virt. eigenvalues --    1.36939   1.37859   1.38868   1.40633   1.41222
 Alpha virt. eigenvalues --    1.41536   1.44055   1.47383   1.48085   1.48812
 Alpha virt. eigenvalues --    1.49644   1.50948   1.54146   1.55211   1.56266
 Alpha virt. eigenvalues --    1.57410   1.58700   1.59699   1.60468   1.63534
 Alpha virt. eigenvalues --    1.63986   1.65000   1.67191   1.70024   1.72536
 Alpha virt. eigenvalues --    1.74162   1.76382   1.76885   1.78302   1.80246
 Alpha virt. eigenvalues --    1.81219   1.82034   1.83056   1.84297   1.85768
 Alpha virt. eigenvalues --    1.86187   1.87070   1.88905   1.91130   1.92518
 Alpha virt. eigenvalues --    1.96156   2.01126   2.04120   2.05015   2.08306
 Alpha virt. eigenvalues --    2.12800   2.13826   2.15066   2.16582   2.18831
 Alpha virt. eigenvalues --    2.19289   2.20126   2.20593   2.21836   2.22779
 Alpha virt. eigenvalues --    2.24922   2.25698   2.26032   2.27103   2.27645
 Alpha virt. eigenvalues --    2.30265   2.31268   2.32393   2.33543   2.34123
 Alpha virt. eigenvalues --    2.36386   2.37766   2.39015   2.40284   2.40993
 Alpha virt. eigenvalues --    2.43587   2.44737   2.46846   2.48253   2.50173
 Alpha virt. eigenvalues --    2.51196   2.52300   2.54679   2.54941   2.55418
 Alpha virt. eigenvalues --    2.56967   2.58769   2.60223   2.61786   2.64716
 Alpha virt. eigenvalues --    2.66171   2.67152   2.67684   2.69204   2.70400
 Alpha virt. eigenvalues --    2.72272   2.72951   2.73408   2.78161   2.79997
 Alpha virt. eigenvalues --    2.81548   2.81822   2.83198   2.84393   2.85148
 Alpha virt. eigenvalues --    2.86211   2.87172   2.89770   2.90363   2.92761
 Alpha virt. eigenvalues --    2.93793   2.94255   2.96940   2.99434   3.01355
 Alpha virt. eigenvalues --    3.03875   3.07764   3.08832   3.11835   3.12952
 Alpha virt. eigenvalues --    3.14741   3.15558   3.17457   3.24403   3.25776
 Alpha virt. eigenvalues --    3.30448   3.33734   3.36975   3.42132   3.46051
 Alpha virt. eigenvalues --    3.46646   3.51874   3.52206   3.56375   3.57233
 Alpha virt. eigenvalues --    3.61595   3.85601   3.92780   4.32998   4.46662
 Alpha virt. eigenvalues --    4.60145   4.62191   4.66809   4.74716   4.76720
 Alpha virt. eigenvalues --    4.77104   4.80935   4.82621   4.84062   4.90643
 Alpha virt. eigenvalues --    4.93082   4.99392   5.06619   5.11965   5.22187
 Alpha virt. eigenvalues --    5.35994   5.80906
  Beta  occ. eigenvalues --  -20.45233 -20.44600 -20.39264 -20.38744 -20.36246
  Beta  occ. eigenvalues --  -11.15879 -11.15461 -11.15099 -11.15054 -11.14940
  Beta  occ. eigenvalues --  -11.14802 -11.12852 -11.12486 -11.11401 -11.10731
  Beta  occ. eigenvalues --  -11.10581 -11.10262 -11.10099 -11.09641  -1.27451
  Beta  occ. eigenvalues --   -1.25195  -1.20755  -1.17522  -1.16745  -0.99935
  Beta  occ. eigenvalues --   -0.97373  -0.91711  -0.88256  -0.83601  -0.83194
  Beta  occ. eigenvalues --   -0.82075  -0.79464  -0.75227  -0.74564  -0.64846
  Beta  occ. eigenvalues --   -0.63993  -0.60912  -0.59472  -0.57713  -0.54453
  Beta  occ. eigenvalues --   -0.53898  -0.52827  -0.51907  -0.50122  -0.49592
  Beta  occ. eigenvalues --   -0.49120  -0.48461  -0.47620  -0.46068  -0.45084
  Beta  occ. eigenvalues --   -0.44779  -0.43555  -0.43211  -0.42248  -0.41209
  Beta  occ. eigenvalues --   -0.40817  -0.40368  -0.39338  -0.38927  -0.38237
  Beta  occ. eigenvalues --   -0.37411  -0.36449  -0.36075  -0.34611  -0.32886
  Beta  occ. eigenvalues --   -0.30712  -0.30128  -0.26562  -0.25185  -0.22474
  Beta  occ. eigenvalues --   -0.18771  -0.18048
  Beta virt. eigenvalues --    0.19969   0.28692   0.31657   0.33380   0.35132
  Beta virt. eigenvalues --    0.35899   0.37210   0.38096   0.39201   0.39770
  Beta virt. eigenvalues --    0.40776   0.41294   0.41797   0.42777   0.43013
  Beta virt. eigenvalues --    0.43515   0.43946   0.45335   0.45754   0.45868
  Beta virt. eigenvalues --    0.46729   0.47831   0.50264   0.50476   0.50506
  Beta virt. eigenvalues --    0.51032   0.52530   0.53883   0.55873   0.57143
  Beta virt. eigenvalues --    0.58836   0.59272   0.62560   0.64429   0.64780
  Beta virt. eigenvalues --    0.68052   0.69327   0.71656   0.74351   0.74589
  Beta virt. eigenvalues --    0.76512   0.80436   0.81866   0.82710   0.84733
  Beta virt. eigenvalues --    0.85677   0.86659   0.87724   0.88466   0.88891
  Beta virt. eigenvalues --    0.89673   0.90522   0.90956   0.92132   0.93826
  Beta virt. eigenvalues --    0.95014   0.95345   0.97101   0.97693   0.98654
  Beta virt. eigenvalues --    1.01382   1.02219   1.04048   1.05693   1.05980
  Beta virt. eigenvalues --    1.06964   1.07439   1.09089   1.09746   1.10466
  Beta virt. eigenvalues --    1.10944   1.11142   1.12060   1.14390   1.14770
  Beta virt. eigenvalues --    1.16079   1.17939   1.19153   1.20406   1.20925
  Beta virt. eigenvalues --    1.22986   1.23355   1.23451   1.24672   1.24715
  Beta virt. eigenvalues --    1.26218   1.26679   1.26964   1.27105   1.27392
  Beta virt. eigenvalues --    1.28139   1.29075   1.29832   1.30490   1.30671
  Beta virt. eigenvalues --    1.32372   1.32734   1.33475   1.33611   1.35044
  Beta virt. eigenvalues --    1.35349   1.37270   1.38285   1.39199   1.40896
  Beta virt. eigenvalues --    1.41316   1.41878   1.44297   1.47765   1.49984
  Beta virt. eigenvalues --    1.50058   1.51237   1.51874   1.54496   1.56039
  Beta virt. eigenvalues --    1.57403   1.58856   1.58919   1.60403   1.61898
  Beta virt. eigenvalues --    1.63871   1.64524   1.65911   1.67374   1.70268
  Beta virt. eigenvalues --    1.72724   1.74260   1.76601   1.77362   1.79096
  Beta virt. eigenvalues --    1.80770   1.81838   1.82503   1.83318   1.84415
  Beta virt. eigenvalues --    1.86406   1.86541   1.87536   1.89203   1.91252
  Beta virt. eigenvalues --    1.92646   1.96325   2.01455   2.04328   2.05340
  Beta virt. eigenvalues --    2.08696   2.13008   2.13998   2.15358   2.17126
  Beta virt. eigenvalues --    2.19355   2.19760   2.20288   2.20760   2.22124
  Beta virt. eigenvalues --    2.23286   2.25350   2.26281   2.26614   2.27914
  Beta virt. eigenvalues --    2.28447   2.30561   2.31978   2.33145   2.34254
  Beta virt. eigenvalues --    2.35086   2.36942   2.38152   2.39084   2.40940
  Beta virt. eigenvalues --    2.41441   2.44030   2.45415   2.47121   2.48604
  Beta virt. eigenvalues --    2.50333   2.52101   2.52651   2.54907   2.55286
  Beta virt. eigenvalues --    2.55895   2.57333   2.58941   2.60433   2.62001
  Beta virt. eigenvalues --    2.64963   2.66560   2.67579   2.67719   2.69501
  Beta virt. eigenvalues --    2.70646   2.72382   2.73224   2.73965   2.78264
  Beta virt. eigenvalues --    2.80264   2.81652   2.81931   2.83287   2.84559
  Beta virt. eigenvalues --    2.85466   2.86318   2.87233   2.89859   2.90482
  Beta virt. eigenvalues --    2.92990   2.93953   2.94381   2.97180   3.00134
  Beta virt. eigenvalues --    3.01678   3.04355   3.08792   3.09357   3.12239
  Beta virt. eigenvalues --    3.13309   3.14985   3.15934   3.17638   3.24608
  Beta virt. eigenvalues --    3.26252   3.30758   3.33991   3.37038   3.42406
  Beta virt. eigenvalues --    3.46228   3.46852   3.52088   3.52628   3.56729
  Beta virt. eigenvalues --    3.57489   3.62017   3.85695   3.92865   4.33147
  Beta virt. eigenvalues --    4.47065   4.60452   4.62424   4.66902   4.75121
  Beta virt. eigenvalues --    4.76692   4.77215   4.81004   4.82642   4.84070
  Beta virt. eigenvalues --    4.90852   4.93117   4.99456   5.07041   5.12033
  Beta virt. eigenvalues --    5.22404   5.36477   5.81210
          Condensed to atoms (all electrons):
               1          2          3          4          5          6
     1  C    5.128132   0.308822   0.464896  -0.069786  -0.094885   0.003298
     2  C    0.308822   5.145527  -0.029240  -0.012606   0.004785  -0.000040
     3  C    0.464896  -0.029240   4.401527   0.431362   0.407390  -0.044436
     4  O   -0.069786  -0.012606   0.431362   8.418173  -0.072615  -0.001068
     5  C   -0.094885   0.004785   0.407390  -0.072615   4.967436   0.215892
     6  O    0.003298  -0.000040  -0.044436  -0.001068   0.215892   8.497771
     7  C   -0.009840  -0.000436  -0.036667   0.004917   0.480348  -0.056645
     8  O   -0.000063   0.000001   0.001905  -0.000010  -0.057707  -0.002887
     9  C   -0.033370   0.002371  -0.013584  -0.000066  -0.043004   0.002167
    10  O    0.003427  -0.000038  -0.000102  -0.000000   0.003618  -0.000008
    11  C    0.542102  -0.047724  -0.032007   0.003931  -0.012197  -0.000124
    12  C   -0.043297  -0.015050   0.002042  -0.000044  -0.000327   0.000000
    13  H   -0.039600   0.385884  -0.001160   0.000368  -0.000111   0.000000
    14  H   -0.041451   0.390743  -0.002848   0.016292   0.000758  -0.000005
    15  H   -0.044637   0.388517   0.000734   0.000315   0.000006   0.000000
    16  C   -0.000038  -0.000002  -0.004195  -0.010599  -0.048073   0.175195
    17  H   -0.000655   0.000028  -0.000581   0.008138  -0.005698  -0.037003
    18  H    0.000059  -0.000001   0.001018   0.000247   0.000768  -0.033701
    19  H    0.000007  -0.000000  -0.000259   0.000546   0.004514  -0.045789
    20  C    0.000036  -0.000000  -0.000134   0.000001  -0.005885   0.000587
    21  H   -0.000020   0.000000  -0.000152   0.000000   0.002620   0.000598
    22  H   -0.000001   0.000000   0.000003  -0.000000  -0.000052  -0.000017
    23  H   -0.000008   0.000000   0.000036  -0.000000   0.000012   0.000017
    24  H   -0.000353  -0.002054   0.000188  -0.000000  -0.000018  -0.000000
    25  H    0.002016   0.000106  -0.000006   0.000000  -0.000035   0.000000
    26  C   -0.001370  -0.000658   0.000101   0.000001  -0.000036  -0.000000
    27  H   -0.000123  -0.000571  -0.000016   0.000000  -0.000000   0.000000
    28  C   -0.000008  -0.000001  -0.000001  -0.000000   0.000002  -0.000000
    29  C    0.000184   0.000027   0.000009   0.000000  -0.000005  -0.000000
    30  H    0.000000  -0.000000   0.000000   0.000000  -0.000000   0.000000
    31  H   -0.000010  -0.000001   0.000000  -0.000000  -0.000004   0.000000
    32  C   -0.000000   0.000000  -0.000000   0.000000   0.000000  -0.000000
    33  H    0.000001  -0.000002   0.000000   0.000000  -0.000000   0.000000
    34  H    0.000000  -0.000000   0.000000   0.000000  -0.000000  -0.000000
    35  H    0.000001   0.000000  -0.000000  -0.000000  -0.000000   0.000000
    36  H    0.000000   0.000000  -0.000000   0.000000   0.000000   0.000000
    37  H    0.000561  -0.000005  -0.002002   0.043628  -0.002094   0.004930
    38  O   -0.000013  -0.000000   0.000305  -0.010206  -0.000169  -0.001224
    39  H    0.000007   0.000000   0.000423   0.000023  -0.000685   0.004885
               7          8          9         10         11         12
     1  C   -0.009840  -0.000063  -0.033370   0.003427   0.542102  -0.043297
     2  C   -0.000436   0.000001   0.002371  -0.000038  -0.047724  -0.015050
     3  C   -0.036667   0.001905  -0.013584  -0.000102  -0.032007   0.002042
     4  O    0.004917  -0.000010  -0.000066  -0.000000   0.003931  -0.000044
     5  C    0.480348  -0.057707  -0.043004   0.003618  -0.012197  -0.000327
     6  O   -0.056645  -0.002887   0.002167  -0.000008  -0.000124   0.000000
     7  C    4.942935   0.224936   0.400221  -0.070300  -0.093287   0.004362
     8  O    0.224936   8.433781  -0.051109  -0.000679   0.003705  -0.000052
     9  C    0.400221  -0.051109   4.485160   0.430648   0.436478  -0.034694
    10  O   -0.070300  -0.000679   0.430648   8.368098  -0.072015  -0.008681
    11  C   -0.093287   0.003705   0.436478  -0.072015   5.185859   0.300624
    12  C    0.004362  -0.000052  -0.034694  -0.008681   0.300624   5.131986
    13  H    0.000020  -0.000000  -0.000021   0.000000  -0.001599   0.000188
    14  H   -0.000029   0.000000  -0.000028   0.000000   0.002169   0.000172
    15  H   -0.000012  -0.000000   0.000102  -0.000000  -0.001065  -0.002125
    16  C   -0.002958   0.000280   0.000024   0.000001  -0.000007  -0.000000
    17  H   -0.000272   0.000005   0.000031  -0.000000  -0.000007   0.000000
    18  H    0.002212   0.000223  -0.000100  -0.000000  -0.000002   0.000000
    19  H   -0.000046  -0.000012   0.000003  -0.000000  -0.000001   0.000000
    20  C   -0.047259   0.215510  -0.005634  -0.006053  -0.000415   0.000002
    21  H   -0.002476  -0.039277   0.000501   0.000244   0.000125  -0.000001
    22  H    0.005305  -0.036066  -0.000071   0.000121   0.000007  -0.000000
    23  H   -0.005997  -0.035878   0.000496   0.008981  -0.000334   0.000007
    24  H    0.000050   0.000000   0.001968   0.000283  -0.053704   0.407256
    25  H    0.000542  -0.000003  -0.003710   0.010041  -0.042266   0.403240
    26  C    0.000001   0.000001  -0.004281  -0.000094  -0.066450   0.335501
    27  H    0.000004  -0.000000   0.000129  -0.000019   0.000221  -0.039853
    28  C   -0.000071   0.000000   0.000047  -0.011584   0.000903  -0.007013
    29  C   -0.000002   0.000000   0.000909   0.000541  -0.003664  -0.041192
    30  H    0.000000   0.000000   0.000034   0.000175  -0.000098   0.000427
    31  H    0.000172  -0.000005  -0.001125   0.019061  -0.001031  -0.002017
    32  C   -0.000001   0.000000  -0.000018   0.000001  -0.000175   0.003652
    33  H    0.000000  -0.000000  -0.000000   0.000000  -0.000007   0.000100
    34  H    0.000000   0.000000   0.000000  -0.000000  -0.000009  -0.000106
    35  H    0.000000  -0.000000   0.000001   0.000000   0.000040  -0.000083
    36  H    0.000001  -0.000000  -0.000035   0.000061   0.000059   0.000238
    37  H    0.000141  -0.000000  -0.000001  -0.000000  -0.000013   0.000000
    38  O   -0.000018   0.000000   0.000000  -0.000000   0.000000  -0.000000
    39  H   -0.000015   0.000000   0.000000   0.000000  -0.000000  -0.000000
              13         14         15         16         17         18
     1  C   -0.039600  -0.041451  -0.044637  -0.000038  -0.000655   0.000059
     2  C    0.385884   0.390743   0.388517  -0.000002   0.000028  -0.000001
     3  C   -0.001160  -0.002848   0.000734  -0.004195  -0.000581   0.001018
     4  O    0.000368   0.016292   0.000315  -0.010599   0.008138   0.000247
     5  C   -0.000111   0.000758   0.000006  -0.048073  -0.005698   0.000768
     6  O    0.000000  -0.000005   0.000000   0.175195  -0.037003  -0.033701
     7  C    0.000020  -0.000029  -0.000012  -0.002958  -0.000272   0.002212
     8  O   -0.000000   0.000000  -0.000000   0.000280   0.000005   0.000223
     9  C   -0.000021  -0.000028   0.000102   0.000024   0.000031  -0.000100
    10  O    0.000000   0.000000  -0.000000   0.000001  -0.000000  -0.000000
    11  C   -0.001599   0.002169  -0.001065  -0.000007  -0.000007  -0.000002
    12  C    0.000188   0.000172  -0.002125  -0.000000   0.000000   0.000000
    13  H    0.573196  -0.024467  -0.036797  -0.000000   0.000001   0.000000
    14  H   -0.024467   0.463876  -0.022263   0.000003  -0.000001  -0.000000
    15  H   -0.036797  -0.022263   0.576118   0.000000  -0.000000  -0.000000
    16  C   -0.000000   0.000003   0.000000   5.038930   0.407144   0.370131
    17  H    0.000001  -0.000001  -0.000000   0.407144   0.520828  -0.038846
    18  H    0.000000  -0.000000  -0.000000   0.370131  -0.038846   0.581338
    19  H    0.000000  -0.000000   0.000000   0.408528  -0.031403  -0.032571
    20  C    0.000000  -0.000000  -0.000000  -0.000131  -0.000001   0.000019
    21  H   -0.000000  -0.000000   0.000000   0.000020   0.000002  -0.000004
    22  H   -0.000000   0.000000   0.000000   0.000002  -0.000000  -0.000001
    23  H   -0.000000   0.000000   0.000000   0.000000   0.000000   0.000000
    24  H   -0.000737   0.000035   0.002272   0.000000   0.000000  -0.000000
    25  H   -0.000034   0.000004   0.000062  -0.000000   0.000000  -0.000000
    26  C   -0.000020  -0.000004  -0.000235  -0.000000  -0.000000   0.000000
    27  H    0.000912   0.000018   0.000062  -0.000000   0.000000  -0.000000
    28  C    0.000000   0.000000   0.000000   0.000000  -0.000000   0.000000
    29  C    0.000056  -0.000000   0.000002  -0.000000   0.000000   0.000000
    30  H    0.000000  -0.000000  -0.000000   0.000000   0.000000  -0.000000
    31  H    0.000000   0.000000  -0.000000   0.000000   0.000000  -0.000000
    32  C    0.000001  -0.000000  -0.000000  -0.000000  -0.000000   0.000000
    33  H    0.000002   0.000000  -0.000000   0.000000   0.000000  -0.000000
    34  H    0.000000   0.000000  -0.000000  -0.000000   0.000000   0.000000
    35  H   -0.000001   0.000000   0.000000   0.000000  -0.000000  -0.000000
    36  H   -0.000000  -0.000000   0.000000   0.000000  -0.000000  -0.000000
    37  H    0.000000  -0.000028   0.000000  -0.011552  -0.017824   0.001127
    38  O   -0.000000   0.000002   0.000000  -0.087962  -0.010433   0.005075
    39  H    0.000000   0.000000  -0.000000  -0.010174  -0.010786   0.001838
              19         20         21         22         23         24
     1  C    0.000007   0.000036  -0.000020  -0.000001  -0.000008  -0.000353
     2  C   -0.000000  -0.000000   0.000000   0.000000   0.000000  -0.002054
     3  C   -0.000259  -0.000134  -0.000152   0.000003   0.000036   0.000188
     4  O    0.000546   0.000001   0.000000  -0.000000  -0.000000  -0.000000
     5  C    0.004514  -0.005885   0.002620  -0.000052   0.000012  -0.000018
     6  O   -0.045789   0.000587   0.000598  -0.000017   0.000017  -0.000000
     7  C   -0.000046  -0.047259  -0.002476   0.005305  -0.005997   0.000050
     8  O   -0.000012   0.215510  -0.039277  -0.036066  -0.035878   0.000000
     9  C    0.000003  -0.005634   0.000501  -0.000071   0.000496   0.001968
    10  O   -0.000000  -0.006053   0.000244   0.000121   0.008981   0.000283
    11  C   -0.000001  -0.000415   0.000125   0.000007  -0.000334  -0.053704
    12  C    0.000000   0.000002  -0.000001  -0.000000   0.000007   0.407256
    13  H    0.000000   0.000000  -0.000000  -0.000000  -0.000000  -0.000737
    14  H   -0.000000  -0.000000  -0.000000   0.000000   0.000000   0.000035
    15  H    0.000000  -0.000000   0.000000   0.000000   0.000000   0.002272
    16  C    0.408528  -0.000131   0.000020   0.000002   0.000000   0.000000
    17  H   -0.031403  -0.000001   0.000002  -0.000000   0.000000   0.000000
    18  H   -0.032571   0.000019  -0.000004  -0.000001   0.000000  -0.000000
    19  H    0.609711   0.000002  -0.000003  -0.000000  -0.000000  -0.000000
    20  C    0.000002   4.842788   0.383901   0.391513   0.390949   0.000000
    21  H   -0.000003   0.383901   0.585998  -0.032886  -0.039843   0.000000
    22  H   -0.000000   0.391513  -0.032886   0.563780  -0.029168   0.000000
    23  H   -0.000000   0.390949  -0.039843  -0.029168   0.526722  -0.000000
    24  H   -0.000000   0.000000   0.000000   0.000000  -0.000000   0.562812
    25  H   -0.000000  -0.000002  -0.000000   0.000000   0.000010  -0.024080
    26  C    0.000000   0.000000  -0.000000  -0.000000  -0.000000  -0.046463
    27  H   -0.000000   0.000000  -0.000000  -0.000000   0.000000  -0.002731
    28  C   -0.000000  -0.000000   0.000000   0.000000   0.000001   0.000080
    29  C   -0.000000  -0.000000   0.000000   0.000000  -0.000000   0.001427
    30  H    0.000000   0.000000  -0.000000  -0.000000  -0.000000   0.000050
    31  H    0.000000   0.000001  -0.000000  -0.000000   0.000002   0.000065
    32  C    0.000000  -0.000000   0.000000  -0.000000  -0.000000  -0.000104
    33  H    0.000000  -0.000000  -0.000000  -0.000000  -0.000000  -0.000011
    34  H    0.000000  -0.000000   0.000000   0.000000  -0.000000   0.000011
    35  H   -0.000000  -0.000000  -0.000000  -0.000000   0.000000  -0.000002
    36  H   -0.000000  -0.000000  -0.000000   0.000000   0.000000  -0.000009
    37  H    0.001130   0.000000  -0.000000  -0.000000   0.000000  -0.000000
    38  O   -0.028752  -0.000000   0.000000   0.000000  -0.000000   0.000000
    39  H   -0.009578   0.000001  -0.000000  -0.000000  -0.000000  -0.000000
              25         26         27         28         29         30
     1  C    0.002016  -0.001370  -0.000123  -0.000008   0.000184   0.000000
     2  C    0.000106  -0.000658  -0.000571  -0.000001   0.000027  -0.000000
     3  C   -0.000006   0.000101  -0.000016  -0.000001   0.000009   0.000000
     4  O    0.000000   0.000001   0.000000  -0.000000   0.000000   0.000000
     5  C   -0.000035  -0.000036  -0.000000   0.000002  -0.000005  -0.000000
     6  O    0.000000  -0.000000   0.000000  -0.000000  -0.000000   0.000000
     7  C    0.000542   0.000001   0.000004  -0.000071  -0.000002   0.000000
     8  O   -0.000003   0.000001  -0.000000   0.000000   0.000000   0.000000
     9  C   -0.003710  -0.004281   0.000129   0.000047   0.000909   0.000034
    10  O    0.010041  -0.000094  -0.000019  -0.011584   0.000541   0.000175
    11  C   -0.042266  -0.066450   0.000221   0.000903  -0.003664  -0.000098
    12  C    0.403240   0.335501  -0.039853  -0.007013  -0.041192   0.000427
    13  H   -0.000034  -0.000020   0.000912   0.000000   0.000056   0.000000
    14  H    0.000004  -0.000004   0.000018   0.000000  -0.000000  -0.000000
    15  H    0.000062  -0.000235   0.000062   0.000000   0.000002  -0.000000
    16  C   -0.000000  -0.000000  -0.000000   0.000000  -0.000000   0.000000
    17  H    0.000000  -0.000000   0.000000  -0.000000   0.000000   0.000000
    18  H   -0.000000   0.000000  -0.000000   0.000000   0.000000  -0.000000
    19  H   -0.000000   0.000000  -0.000000  -0.000000  -0.000000   0.000000
    20  C   -0.000002   0.000000   0.000000  -0.000000  -0.000000   0.000000
    21  H   -0.000000  -0.000000  -0.000000   0.000000   0.000000  -0.000000
    22  H    0.000000  -0.000000  -0.000000   0.000000   0.000000  -0.000000
    23  H    0.000010  -0.000000   0.000000   0.000001  -0.000000  -0.000000
    24  H   -0.024080  -0.046463  -0.002731   0.000080   0.001427   0.000050
    25  H    0.483526  -0.039180   0.002731  -0.000446  -0.000513  -0.000139
    26  C   -0.039180   5.009735   0.391764  -0.042505   0.709248  -0.003082
    27  H    0.002731   0.391764   0.532106   0.003749  -0.043312  -0.000137
    28  C   -0.000446  -0.042505   0.003749   5.179672   0.340283   0.375665
    29  C   -0.000513   0.709248  -0.043312   0.340283   4.853648  -0.043357
    30  H   -0.000139  -0.003082  -0.000137   0.375665  -0.043357   0.594062
    31  H   -0.001008  -0.001555  -0.000009   0.381160  -0.030195  -0.018485
    32  C    0.000081  -0.045716  -0.006795  -0.068797   0.353772   0.000343
    33  H    0.000007  -0.000398   0.003522   0.003897  -0.041135  -0.000132
    34  H    0.000001  -0.001338   0.000145   0.000409  -0.045481   0.002141
    35  H   -0.000002  -0.000776   0.000208  -0.001677  -0.041045  -0.000296
    36  H    0.000045   0.001346  -0.000114   0.391455  -0.045486  -0.038016
    37  H   -0.000000  -0.000000  -0.000000   0.000000  -0.000000  -0.000000
    38  O    0.000000   0.000000  -0.000000  -0.000000   0.000000   0.000000
    39  H   -0.000000   0.000000  -0.000000   0.000000   0.000000  -0.000000
              31         32         33         34         35         36
     1  C   -0.000010  -0.000000   0.000001   0.000000   0.000001   0.000000
     2  C   -0.000001   0.000000  -0.000002  -0.000000   0.000000   0.000000
     3  C    0.000000  -0.000000   0.000000   0.000000  -0.000000  -0.000000
     4  O   -0.000000   0.000000   0.000000   0.000000  -0.000000   0.000000
     5  C   -0.000004   0.000000  -0.000000  -0.000000  -0.000000   0.000000
     6  O    0.000000  -0.000000   0.000000  -0.000000   0.000000   0.000000
     7  C    0.000172  -0.000001   0.000000   0.000000   0.000000   0.000001
     8  O   -0.000005   0.000000  -0.000000   0.000000  -0.000000  -0.000000
     9  C   -0.001125  -0.000018  -0.000000   0.000000   0.000001  -0.000035
    10  O    0.019061   0.000001   0.000000  -0.000000   0.000000   0.000061
    11  C   -0.001031  -0.000175  -0.000007  -0.000009   0.000040   0.000059
    12  C   -0.002017   0.003652   0.000100  -0.000106  -0.000083   0.000238
    13  H    0.000000   0.000001   0.000002   0.000000  -0.000001  -0.000000
    14  H    0.000000  -0.000000   0.000000   0.000000   0.000000  -0.000000
    15  H   -0.000000  -0.000000  -0.000000  -0.000000   0.000000   0.000000
    16  C    0.000000  -0.000000   0.000000  -0.000000   0.000000   0.000000
    17  H    0.000000  -0.000000   0.000000   0.000000  -0.000000  -0.000000
    18  H   -0.000000   0.000000  -0.000000   0.000000  -0.000000  -0.000000
    19  H    0.000000   0.000000   0.000000   0.000000  -0.000000  -0.000000
    20  C    0.000001  -0.000000  -0.000000  -0.000000  -0.000000  -0.000000
    21  H   -0.000000   0.000000  -0.000000   0.000000  -0.000000  -0.000000
    22  H   -0.000000  -0.000000  -0.000000   0.000000  -0.000000   0.000000
    23  H    0.000002  -0.000000  -0.000000  -0.000000   0.000000   0.000000
    24  H    0.000065  -0.000104  -0.000011   0.000011  -0.000002  -0.000009
    25  H   -0.001008   0.000081   0.000007   0.000001  -0.000002   0.000045
    26  C   -0.001555  -0.045716  -0.000398  -0.001338  -0.000776   0.001346
    27  H   -0.000009  -0.006795   0.003522   0.000145   0.000208  -0.000114
    28  C    0.381160  -0.068797   0.003897   0.000409  -0.001677   0.391455
    29  C   -0.030195   0.353772  -0.041135  -0.045481  -0.041045  -0.045486
    30  H   -0.018485   0.000343  -0.000132   0.002141  -0.000296  -0.038016
    31  H    0.411012   0.002968  -0.000088  -0.000016  -0.000061  -0.021859
    32  C    0.002968   5.103835   0.390719   0.385244   0.384231  -0.003874
    33  H   -0.000088   0.390719   0.541453  -0.027373  -0.025464   0.000103
    34  H   -0.000016   0.385244  -0.027373   0.587678  -0.039653  -0.000775
    35  H   -0.000061   0.384231  -0.025464  -0.039653   0.569608   0.003170
    36  H   -0.021859  -0.003874   0.000103  -0.000775   0.003170   0.573396
    37  H   -0.000000  -0.000000  -0.000000  -0.000000   0.000000   0.000000
    38  O    0.000000   0.000000   0.000000   0.000000  -0.000000   0.000000
    39  H   -0.000000   0.000000  -0.000000   0.000000  -0.000000  -0.000000
              37         38         39
     1  C    0.000561  -0.000013   0.000007
     2  C   -0.000005  -0.000000   0.000000
     3  C   -0.002002   0.000305   0.000423
     4  O    0.043628  -0.010206   0.000023
     5  C   -0.002094  -0.000169  -0.000685
     6  O    0.004930  -0.001224   0.004885
     7  C    0.000141  -0.000018  -0.000015
     8  O   -0.000000   0.000000   0.000000
     9  C   -0.000001   0.000000   0.000000
    10  O   -0.000000  -0.000000   0.000000
    11  C   -0.000013   0.000000  -0.000000
    12  C    0.000000  -0.000000  -0.000000
    13  H    0.000000  -0.000000   0.000000
    14  H   -0.000028   0.000002   0.000000
    15  H    0.000000   0.000000  -0.000000
    16  C   -0.011552  -0.087962  -0.010174
    17  H   -0.017824  -0.010433  -0.010786
    18  H    0.001127   0.005075   0.001838
    19  H    0.001130  -0.028752  -0.009578
    20  C    0.000000  -0.000000   0.000001
    21  H   -0.000000   0.000000  -0.000000
    22  H   -0.000000   0.000000  -0.000000
    23  H    0.000000  -0.000000  -0.000000
    24  H   -0.000000   0.000000  -0.000000
    25  H   -0.000000   0.000000  -0.000000
    26  C   -0.000000   0.000000   0.000000
    27  H   -0.000000  -0.000000  -0.000000
    28  C    0.000000  -0.000000   0.000000
    29  C   -0.000000   0.000000   0.000000
    30  H   -0.000000   0.000000  -0.000000
    31  H   -0.000000   0.000000  -0.000000
    32  C   -0.000000   0.000000   0.000000
    33  H   -0.000000   0.000000  -0.000000
    34  H   -0.000000   0.000000   0.000000
    35  H    0.000000  -0.000000  -0.000000
    36  H    0.000000   0.000000  -0.000000
    37  H    0.244308   0.250046  -0.020690
    38  O    0.250046   8.562613   0.276950
    39  H   -0.020690   0.276950   0.317338
          Atomic-Atomic Spin Densities.
               1          2          3          4          5          6
     1  C   -0.135229   0.006722   0.079953  -0.003808   0.000533  -0.000040
     2  C    0.006722   0.005066  -0.004466   0.000262  -0.000001  -0.000000
     3  C    0.079953  -0.004466   0.205634  -0.128907   0.070002  -0.003665
     4  O   -0.003808   0.000262  -0.128907   0.398105  -0.001566   0.000420
     5  C    0.000533  -0.000001   0.070002  -0.001566  -0.164640   0.008678
     6  O   -0.000040  -0.000000  -0.003665   0.000420   0.008678  -0.001554
     7  C   -0.003500   0.000027  -0.009201   0.000473  -0.054999   0.002384
     8  O    0.000005  -0.000000  -0.000006  -0.000000   0.004125  -0.000244
     9  C   -0.005514  -0.000039  -0.003010   0.000035  -0.004199  -0.000012
    10  O    0.000521   0.000001   0.000044  -0.000000   0.000423  -0.000000
    11  C   -0.073228   0.001801  -0.008484   0.000612  -0.002986   0.000016
    12  C    0.004093   0.000190  -0.000076   0.000000  -0.000026  -0.000000
    13  H    0.001085  -0.000490  -0.000425   0.000127  -0.000031   0.000000
    14  H    0.001224   0.000309  -0.000419  -0.001092  -0.000029   0.000000
    15  H    0.000614  -0.000754  -0.000213   0.000047  -0.000015   0.000000
    16  C   -0.000034  -0.000001  -0.000350  -0.000452   0.005843  -0.001414
    17  H   -0.000063  -0.000001  -0.002695   0.001489  -0.000903  -0.000012
    18  H    0.000013   0.000000   0.000288  -0.000039  -0.001112   0.000376
    19  H    0.000001  -0.000000  -0.000002  -0.000049   0.000079   0.000007
    20  C    0.000019  -0.000000  -0.000014  -0.000000   0.001943  -0.000088
    21  H   -0.000006   0.000000  -0.000003   0.000000  -0.000697   0.000083
    22  H   -0.000000   0.000000  -0.000001   0.000000  -0.000017   0.000002
    23  H    0.000011  -0.000000   0.000006  -0.000000   0.000157  -0.000002
    24  H    0.000737  -0.000187   0.000023  -0.000000   0.000005  -0.000000
    25  H    0.000177   0.000004  -0.000006  -0.000000   0.000020   0.000000
    26  C    0.000357  -0.000027   0.000028  -0.000001   0.000016  -0.000000
    27  H   -0.000084   0.000005  -0.000012   0.000000  -0.000001   0.000000
    28  C   -0.000002  -0.000000  -0.000000   0.000000  -0.000000   0.000000
    29  C   -0.000022   0.000000   0.000002  -0.000000   0.000001  -0.000000
    30  H    0.000000  -0.000000   0.000000  -0.000000  -0.000000  -0.000000
    31  H    0.000005   0.000000   0.000000  -0.000000  -0.000000  -0.000000
    32  C    0.000004  -0.000000   0.000000  -0.000000   0.000000  -0.000000
    33  H    0.000000  -0.000000   0.000000  -0.000000   0.000000  -0.000000
    34  H    0.000000  -0.000000   0.000000  -0.000000   0.000000  -0.000000
    35  H   -0.000001   0.000000  -0.000000   0.000000  -0.000000   0.000000
    36  H   -0.000000   0.000000  -0.000000   0.000000  -0.000000   0.000000
    37  H   -0.000034   0.000001   0.000065  -0.003569   0.000170   0.000077
    38  O    0.000001  -0.000000   0.000055   0.000550  -0.000010   0.000012
    39  H    0.000000   0.000000   0.000004   0.000016  -0.000033  -0.000086
               7          8          9         10         11         12
     1  C   -0.003500   0.000005  -0.005514   0.000521  -0.073228   0.004093
     2  C    0.000027  -0.000000  -0.000039   0.000001   0.001801   0.000190
     3  C   -0.009201  -0.000006  -0.003010   0.000044  -0.008484  -0.000076
     4  O    0.000473  -0.000000   0.000035  -0.000000   0.000612   0.000000
     5  C   -0.054999   0.004125  -0.004199   0.000423  -0.002986  -0.000026
     6  O    0.002384  -0.000244  -0.000012  -0.000000   0.000016  -0.000000
     7  C    0.259057  -0.016407   0.069565  -0.003886  -0.010324   0.000114
     8  O   -0.016407   0.002800  -0.002530   0.000507   0.000050   0.000001
     9  C    0.069565  -0.002530  -0.077679  -0.124094   0.071567  -0.004459
    10  O   -0.003886   0.000507  -0.124094   0.569789  -0.003936   0.000007
    11  C   -0.010324   0.000050   0.071567  -0.003936   0.290739  -0.005767
    12  C    0.000114   0.000001  -0.004459   0.000007  -0.005767  -0.032627
    13  H    0.000010   0.000000   0.000007  -0.000000   0.000578  -0.000127
    14  H   -0.000001  -0.000000  -0.000002  -0.000000   0.000097   0.000011
    15  H    0.000006  -0.000000   0.000006  -0.000001   0.000408  -0.000093
    16  C    0.001242  -0.000031  -0.000028  -0.000000   0.000017  -0.000000
    17  H    0.000130  -0.000001   0.000004  -0.000000   0.000007  -0.000000
    18  H   -0.000311   0.000024   0.000001   0.000000  -0.000006   0.000000
    19  H   -0.000009   0.000001  -0.000000   0.000000   0.000000  -0.000000
    20  C   -0.004915   0.001764  -0.000508  -0.000002  -0.000028   0.000001
    21  H    0.000642   0.000036   0.000217  -0.000036   0.000005   0.000000
    22  H    0.000567   0.000090  -0.000012  -0.000035   0.000000   0.000000
    23  H   -0.000771   0.000138  -0.001827  -0.000076  -0.000089  -0.000001
    24  H   -0.000013   0.000000  -0.000159   0.000022  -0.002064   0.000857
    25  H   -0.000096  -0.000000  -0.000420  -0.000847  -0.000741   0.002445
    26  C   -0.000008  -0.000000   0.000006   0.000299  -0.007535   0.008344
    27  H    0.000002  -0.000000   0.000048  -0.000003   0.000780  -0.000124
    28  C    0.000006  -0.000000   0.000266   0.000528   0.000074  -0.000023
    29  C   -0.000003   0.000000  -0.000319   0.000032  -0.000856   0.000761
    30  H    0.000000   0.000000  -0.000014   0.000006  -0.000007  -0.000031
    31  H   -0.000016   0.000001  -0.000463  -0.002597   0.000105  -0.000138
    32  C   -0.000000   0.000000  -0.000011   0.000002  -0.000043  -0.000012
    33  H   -0.000000   0.000000  -0.000000   0.000000  -0.000002  -0.000001
    34  H   -0.000000   0.000000  -0.000000   0.000000  -0.000001   0.000001
    35  H    0.000000  -0.000000   0.000002  -0.000001   0.000007  -0.000003
    36  H    0.000000  -0.000000   0.000019  -0.000030   0.000010  -0.000002
    37  H   -0.000014  -0.000000   0.000000  -0.000000   0.000000  -0.000000
    38  O    0.000001   0.000000  -0.000000   0.000000  -0.000000   0.000000
    39  H   -0.000002  -0.000000   0.000000  -0.000000   0.000000   0.000000
              13         14         15         16         17         18
     1  C    0.001085   0.001224   0.000614  -0.000034  -0.000063   0.000013
     2  C   -0.000490   0.000309  -0.000754  -0.000001  -0.000001   0.000000
     3  C   -0.000425  -0.000419  -0.000213  -0.000350  -0.002695   0.000288
     4  O    0.000127  -0.001092   0.000047  -0.000452   0.001489  -0.000039
     5  C   -0.000031  -0.000029  -0.000015   0.005843  -0.000903  -0.001112
     6  O    0.000000   0.000000   0.000000  -0.001414  -0.000012   0.000376
     7  C    0.000010  -0.000001   0.000006   0.001242   0.000130  -0.000311
     8  O    0.000000  -0.000000  -0.000000  -0.000031  -0.000001   0.000024
     9  C    0.000007  -0.000002   0.000006  -0.000028   0.000004   0.000001
    10  O   -0.000000  -0.000000  -0.000001  -0.000000  -0.000000   0.000000
    11  C    0.000578   0.000097   0.000408   0.000017   0.000007  -0.000006
    12  C   -0.000127   0.000011  -0.000093  -0.000000  -0.000000   0.000000
    13  H   -0.004207   0.000199   0.000446  -0.000000   0.000001  -0.000000
    14  H    0.000199  -0.001683   0.000017   0.000000  -0.000001   0.000000
    15  H    0.000446   0.000017  -0.001615  -0.000000  -0.000000   0.000000
    16  C   -0.000000   0.000000  -0.000000  -0.011417   0.000256   0.001484
    17  H    0.000001  -0.000001  -0.000000   0.000256   0.003269  -0.000351
    18  H   -0.000000   0.000000   0.000000   0.001484  -0.000351  -0.000753
    19  H   -0.000000   0.000000   0.000000   0.001129  -0.000655  -0.000116
    20  C    0.000000  -0.000000  -0.000000   0.000051   0.000001  -0.000007
    21  H   -0.000000   0.000000   0.000000  -0.000012  -0.000000   0.000001
    22  H   -0.000000   0.000000   0.000000  -0.000001  -0.000000   0.000000
    23  H    0.000000  -0.000000  -0.000000   0.000001   0.000000  -0.000000
    24  H    0.000086  -0.000007  -0.000257   0.000000   0.000000  -0.000000
    25  H    0.000015  -0.000001  -0.000035   0.000000   0.000000  -0.000000
    26  C   -0.000111   0.000002   0.000054  -0.000000  -0.000000   0.000000
    27  H    0.000073  -0.000000  -0.000019   0.000000   0.000000  -0.000000
    28  C    0.000000  -0.000000  -0.000000   0.000000   0.000000  -0.000000
    29  C    0.000010  -0.000000  -0.000002  -0.000000  -0.000000   0.000000
    30  H   -0.000000   0.000000   0.000000  -0.000000  -0.000000   0.000000
    31  H   -0.000000   0.000000   0.000000  -0.000000  -0.000000   0.000000
    32  C   -0.000002   0.000000   0.000000  -0.000000  -0.000000   0.000000
    33  H   -0.000000   0.000000   0.000000  -0.000000  -0.000000   0.000000
    34  H   -0.000000   0.000000   0.000000  -0.000000  -0.000000   0.000000
    35  H    0.000000  -0.000000  -0.000000   0.000000   0.000000  -0.000000
    36  H    0.000000  -0.000000  -0.000000   0.000000   0.000000  -0.000000
    37  H   -0.000000   0.000002   0.000000   0.000331  -0.000217  -0.000005
    38  O    0.000000  -0.000000  -0.000000  -0.000217  -0.000075   0.000016
    39  H   -0.000000   0.000000   0.000000   0.000164  -0.000097  -0.000026
              19         20         21         22         23         24
     1  C    0.000001   0.000019  -0.000006  -0.000000   0.000011   0.000737
     2  C   -0.000000  -0.000000   0.000000   0.000000  -0.000000  -0.000187
     3  C   -0.000002  -0.000014  -0.000003  -0.000001   0.000006   0.000023
     4  O   -0.000049  -0.000000   0.000000   0.000000  -0.000000  -0.000000
     5  C    0.000079   0.001943  -0.000697  -0.000017   0.000157   0.000005
     6  O    0.000007  -0.000088   0.000083   0.000002  -0.000002  -0.000000
     7  C   -0.000009  -0.004915   0.000642   0.000567  -0.000771  -0.000013
     8  O    0.000001   0.001764   0.000036   0.000090   0.000138   0.000000
     9  C   -0.000000  -0.000508   0.000217  -0.000012  -0.001827  -0.000159
    10  O    0.000000  -0.000002  -0.000036  -0.000035  -0.000076   0.000022
    11  C    0.000000  -0.000028   0.000005   0.000000  -0.000089  -0.002064
    12  C   -0.000000   0.000001   0.000000   0.000000  -0.000001   0.000857
    13  H   -0.000000   0.000000  -0.000000  -0.000000   0.000000   0.000086
    14  H    0.000000  -0.000000   0.000000   0.000000  -0.000000  -0.000007
    15  H    0.000000  -0.000000   0.000000   0.000000  -0.000000  -0.000257
    16  C    0.001129   0.000051  -0.000012  -0.000001   0.000001   0.000000
    17  H   -0.000655   0.000001  -0.000000  -0.000000   0.000000   0.000000
    18  H   -0.000116  -0.000007   0.000001   0.000000  -0.000000  -0.000000
    19  H   -0.000379  -0.000000   0.000000   0.000000  -0.000000  -0.000000
    20  C   -0.000000   0.004116   0.000100  -0.000297   0.001226  -0.000000
    21  H    0.000000   0.000100  -0.000827   0.000392  -0.000333  -0.000000
    22  H    0.000000  -0.000297   0.000392   0.000780  -0.000516   0.000000
    23  H   -0.000000   0.001226  -0.000333  -0.000516   0.000889   0.000000
    24  H   -0.000000  -0.000000  -0.000000   0.000000   0.000000   0.005780
    25  H   -0.000000  -0.000000   0.000000  -0.000000   0.000002   0.000816
    26  C    0.000000  -0.000000   0.000000  -0.000000  -0.000000  -0.001648
    27  H   -0.000000   0.000000  -0.000000  -0.000000   0.000000   0.000141
    28  C   -0.000000   0.000000  -0.000000  -0.000000   0.000000   0.000024
    29  C    0.000000  -0.000000   0.000000   0.000000  -0.000000  -0.000020
    30  H    0.000000  -0.000000   0.000000   0.000000  -0.000000  -0.000004
    31  H    0.000000  -0.000000   0.000000   0.000000   0.000001  -0.000023
    32  C    0.000000  -0.000000   0.000000   0.000000  -0.000000  -0.000005
    33  H    0.000000  -0.000000   0.000000   0.000000  -0.000000  -0.000000
    34  H    0.000000   0.000000   0.000000   0.000000  -0.000000  -0.000000
    35  H   -0.000000   0.000000  -0.000000  -0.000000   0.000000   0.000000
    36  H   -0.000000   0.000000  -0.000000  -0.000000   0.000000   0.000000
    37  H    0.000040  -0.000000   0.000000   0.000000  -0.000000  -0.000000
    38  O   -0.000012   0.000000  -0.000000  -0.000000   0.000000   0.000000
    39  H   -0.000030  -0.000000   0.000000   0.000000  -0.000000  -0.000000
              25         26         27         28         29         30
     1  C    0.000177   0.000357  -0.000084  -0.000002  -0.000022   0.000000
     2  C    0.000004  -0.000027   0.000005  -0.000000   0.000000  -0.000000
     3  C   -0.000006   0.000028  -0.000012  -0.000000   0.000002   0.000000
     4  O   -0.000000  -0.000001   0.000000   0.000000  -0.000000  -0.000000
     5  C    0.000020   0.000016  -0.000001  -0.000000   0.000001  -0.000000
     6  O    0.000000  -0.000000   0.000000   0.000000  -0.000000  -0.000000
     7  C   -0.000096  -0.000008   0.000002   0.000006  -0.000003   0.000000
     8  O   -0.000000  -0.000000  -0.000000  -0.000000   0.000000   0.000000
     9  C   -0.000420   0.000006   0.000048   0.000266  -0.000319  -0.000014
    10  O   -0.000847   0.000299  -0.000003   0.000528   0.000032   0.000006
    11  C   -0.000741  -0.007535   0.000780   0.000074  -0.000856  -0.000007
    12  C    0.002445   0.008344  -0.000124  -0.000023   0.000761  -0.000031
    13  H    0.000015  -0.000111   0.000073   0.000000   0.000010  -0.000000
    14  H   -0.000001   0.000002  -0.000000  -0.000000  -0.000000   0.000000
    15  H   -0.000035   0.000054  -0.000019  -0.000000  -0.000002   0.000000
[...]
    13  H(1)               0.00486      21.73783       7.75660       7.25096
    14  H(1)               0.00079       3.54451       1.26477       1.18232
    15  H(1)               0.00366      16.36963       5.84109       5.46032
    16  C(13)              0.00528       5.93674       2.11838       1.98028
    17  H(1)               0.00009       0.39462       0.14081       0.13163
    18  H(1)              -0.00023      -1.01580      -0.36246      -0.33884
    19  H(1)              -0.00003      -0.12381      -0.04418      -0.04130
    20  C(13)             -0.00704      -7.91542      -2.82442      -2.64030
    21  H(1)               0.00014       0.61045       0.21782       0.20362
    22  H(1)               0.00003       0.12726       0.04541       0.04245
    23  H(1)               0.00024       1.09156       0.38950       0.36411
    24  H(1)              -0.00034      -1.50196      -0.53594      -0.50100
    25  H(1)              -0.00031      -1.40478      -0.50126      -0.46858
    26  C(13)              0.00414       4.65001       1.65924       1.55108
    27  H(1)              -0.00082      -3.66637      -1.30825      -1.22297
    28  C(13)              0.00108       1.21546       0.43371       0.40543
    29  C(13)             -0.00740      -8.32197      -2.96949      -2.77591
    30  H(1)              -0.00065      -2.91935      -1.04170      -0.97379
    31  H(1)              -0.00006      -0.24703      -0.08815      -0.08240
    32  C(13)              0.00150       1.68167       0.60006       0.56094
    33  H(1)              -0.00007      -0.29941      -0.10684      -0.09987
    34  H(1)              -0.00056      -2.48428      -0.88645      -0.82867
    35  H(1)              -0.00059      -2.62683      -0.93732      -0.87621
    36  H(1)              -0.00037      -1.65151      -0.58930      -0.55088
    37  H(1)              -0.00000      -0.00668      -0.00238      -0.00223
    38  O(17)              0.00001      -0.00867      -0.00310      -0.00289
    39  H(1)              -0.00000      -0.00248      -0.00089      -0.00083
 --------------------------------------------------------
       Center         ----  Spin Dipole Couplings  ----
                      3XX-RR        3YY-RR        3ZZ-RR
 --------------------------------------------------------
     1   Atom       -0.095702     -0.095108      0.190810
     2   Atom        0.004275     -0.003148     -0.001127
     3   Atom        0.003251      0.004223     -0.007474
     4   Atom       -0.626453     -0.653378      1.279831
     5   Atom       -0.091337     -0.096985      0.188321
     6   Atom       -0.021319     -0.012692      0.034011
     7   Atom        0.038075      0.047591     -0.085667
     8   Atom       -0.004511      0.015729     -0.011218
     9   Atom       -0.067745     -0.073666      0.141411
    10   Atom       -0.504123     -0.603057      1.107181
    11   Atom        0.035273      0.033073     -0.068346
    12   Atom        0.003183      0.001080     -0.004264
    13   Atom        0.001255      0.002214     -0.003469
    14   Atom       -0.001188      0.004513     -0.003325
    15   Atom        0.000928      0.000667     -0.001595
    16   Atom        0.001009     -0.002771      0.001762
    17   Atom        0.000946     -0.002467      0.001521
    18   Atom       -0.000950     -0.001850      0.002801
    19   Atom        0.001728     -0.001094     -0.000633
    20   Atom        0.002360     -0.000273     -0.002087
    21   Atom        0.000806      0.001278     -0.002083
    22   Atom        0.000468      0.000607     -0.001075
    23   Atom        0.000532      0.002912     -0.003444
    24   Atom        0.000770      0.000126     -0.000896
    25   Atom        0.002180      0.000193     -0.002373
    26   Atom        0.013583     -0.010133     -0.003450
    27   Atom        0.000770      0.001762     -0.002532
    28   Atom        0.002752     -0.001104     -0.001648
    29   Atom       -0.008880      0.012651     -0.003771
    30   Atom        0.001956     -0.001130     -0.000825
    31   Atom        0.008350     -0.004147     -0.004202
    32   Atom        0.000792     -0.000681     -0.000111
    33   Atom        0.000643     -0.000399     -0.000244
    34   Atom        0.000608     -0.000235     -0.000373
    35   Atom        0.000483     -0.000282     -0.000202
    36   Atom        0.001509     -0.001500     -0.000009
    37   Atom        0.002021     -0.001021     -0.001001
    38   Atom        0.001238     -0.000620     -0.000617
    39   Atom        0.001061     -0.000487     -0.000575
 --------------------------------------------------------
                        XY            XZ            YZ
 --------------------------------------------------------
     1   Atom       -0.016371      0.071057     -0.060284
     2   Atom       -0.002547     -0.002333      0.000815
     3   Atom        0.016110      0.005529     -0.007158
     4   Atom       -0.116126      0.501429     -0.437554
     5   Atom       -0.010588      0.064115     -0.055370
     6   Atom        0.006624      0.038538      0.001449
     7   Atom        0.011641     -0.030866      0.034229
     8   Atom       -0.007407     -0.008755      0.000348
     9   Atom       -0.000185      0.064845     -0.041746
    10   Atom       -0.102581      0.481754     -0.281125
    11   Atom        0.006886     -0.022123      0.012310
    12   Atom       -0.003129     -0.002756      0.002118
    13   Atom       -0.003336     -0.000961      0.000730
    14   Atom       -0.004567     -0.002644      0.003622
    15   Atom       -0.002689     -0.001778      0.002307
    16   Atom        0.001379     -0.007184     -0.001812
    17   Atom       -0.001137     -0.006753      0.002533
    18   Atom       -0.000961     -0.002626      0.001900
    19   Atom       -0.001160     -0.002138      0.000802
    20   Atom       -0.002586      0.001448      0.003382
    21   Atom       -0.001049     -0.000145     -0.000515
    22   Atom       -0.001108     -0.000054      0.000050
    23   Atom       -0.004437      0.002648     -0.001667
    24   Atom       -0.000437     -0.001041      0.000887
    25   Atom       -0.003853     -0.003388      0.002388
    26   Atom       -0.009928     -0.023022      0.006548
    27   Atom       -0.000813     -0.000681     -0.000859
    28   Atom       -0.000275      0.001247      0.000022
    29   Atom        0.007279      0.022990     -0.006903
    30   Atom       -0.000281      0.000391      0.000109
    31   Atom       -0.001536      0.002562     -0.000245
    32   Atom       -0.000419      0.000851     -0.000137
    33   Atom       -0.000354      0.000683     -0.000095
    34   Atom       -0.000051      0.000183     -0.000006
    35   Atom       -0.000190      0.000632     -0.000026
    36   Atom        0.000001      0.001660     -0.000138
    37   Atom       -0.000164     -0.000754      0.000079
    38   Atom       -0.000057     -0.000420      0.000042
    39   Atom       -0.000300     -0.000246      0.000051
 --------------------------------------------------------


 ---------------------------------------------------------------------------------
              Anisotropic Spin Dipole Couplings in Principal Axis System
 ---------------------------------------------------------------------------------

       Atom             a.u.   MegaHertz   Gauss  10(-4) cm-1        Axes

              Baa    -0.1132   -15.185    -5.419    -5.065  0.9265  0.3461 -0.1479
     1 C(13)  Bbb    -0.1067   -14.315    -5.108    -4.775 -0.3017  0.9178  0.2580
              Bcc     0.2198    29.500    10.526     9.840  0.2251 -0.1944  0.9547
 
              Baa    -0.0039    -0.529    -0.189    -0.176  0.2853  0.9576 -0.0407
     2 C(13)  Bbb    -0.0020    -0.267    -0.095    -0.089  0.3278 -0.0576  0.9430
              Bcc     0.0059     0.796     0.284     0.265  0.9006 -0.2824 -0.3304
 
              Baa    -0.0192    -2.580    -0.921    -0.861 -0.5561  0.5674  0.6073
     3 C(13)  Bbb    -0.0007    -0.093    -0.033    -0.031  0.4705 -0.3874  0.7928
              Bcc     0.0199     2.673     0.954     0.892  0.6851  0.7266 -0.0516
 
              Baa    -0.7571    54.786    19.549    18.275  0.7568  0.6520 -0.0463
     4 O(17)  Bbb    -0.7417    53.672    19.151    17.903 -0.6098  0.7298  0.3092
              Bcc     1.4989  -108.457   -38.700   -36.178  0.2353 -0.2058  0.9499
 
              Baa    -0.1080   -14.495    -5.172    -4.835 -0.4291  0.8666  0.2548
     5 C(13)  Bbb    -0.1046   -14.031    -5.007    -4.680  0.8787  0.4657 -0.1043
              Bcc     0.2126    28.526    10.179     9.515  0.2091 -0.1791  0.9614
 
              Baa    -0.0420     3.041     1.085     1.015  0.8793 -0.1767 -0.4423
     6 O(17)  Bbb    -0.0120     0.871     0.311     0.290  0.1279  0.9821 -0.1380
              Bcc     0.0541    -3.912    -1.396    -1.305  0.4587  0.0648  0.8862
 
              Baa    -0.1016   -13.637    -4.866    -4.549  0.2283 -0.2346  0.9449
     7 C(13)  Bbb     0.0444     5.956     2.125     1.987  0.9202 -0.2650 -0.2881
              Bcc     0.0572     7.680     2.741     2.562  0.3180  0.9353  0.1553
 
              Baa    -0.0177     1.283     0.458     0.428  0.5952  0.1235  0.7940
     8 O(17)  Bbb    -0.0008     0.056     0.020     0.019  0.7267  0.3389 -0.5975
              Bcc     0.0185    -1.338    -0.478    -0.446 -0.3429  0.9327  0.1120
 
              Baa    -0.0948   -12.720    -4.539    -4.243  0.7355 -0.6032 -0.3085
     9 C(13)  Bbb    -0.0718    -9.639    -3.439    -3.215  0.6243  0.7803 -0.0371
              Bcc     0.1666    22.359     7.978     7.458  0.2631 -0.1653  0.9505
 
              Baa    -0.6683    48.355    17.254    16.130  0.6178  0.7851 -0.0433
    10 O(17)  Bbb    -0.6190    44.793    15.983    14.941  0.7404 -0.5994 -0.3042
              Bcc     1.2873   -93.149   -33.238   -31.071  0.2648 -0.1559  0.9516
 
              Baa    -0.0746   -10.004    -3.570    -3.337  0.2034 -0.1241  0.9712
    11 C(13)  Bbb     0.0323     4.339     1.548     1.447 -0.4623  0.8622  0.2070
              Bcc     0.0422     5.665     2.021     1.890  0.8631  0.4911 -0.1180
 
              Baa    -0.0054    -0.722    -0.258    -0.241  0.2335 -0.1989  0.9518
    12 C(13)  Bbb    -0.0012    -0.157    -0.056    -0.052  0.5932  0.8048  0.0226
              Bcc     0.0065     0.879     0.314     0.293  0.7705 -0.5593 -0.3059
 
              Baa    -0.0037    -1.952    -0.697    -0.651  0.1782 -0.0210  0.9838
    13 H(1)   Bbb    -0.0016    -0.857    -0.306    -0.286  0.7365  0.6659 -0.1191
              Bcc     0.0053     2.809     1.002     0.937 -0.6526  0.7457  0.1341
 
              Baa    -0.0052    -2.754    -0.983    -0.919  0.4540 -0.1164  0.8834
    14 H(1)   Bbb    -0.0035    -1.886    -0.673    -0.629  0.7580  0.5716 -0.3142
              Bcc     0.0087     4.640     1.656     1.548 -0.4683  0.8122  0.3477
 
              Baa    -0.0030    -1.621    -0.578    -0.541  0.0443 -0.5048  0.8621
    15 H(1)   Bbb    -0.0018    -0.937    -0.334    -0.312  0.7667  0.5704  0.2947
              Bcc     0.0048     2.557     0.913     0.853 -0.6405  0.6479  0.4123
 
              Baa    -0.0058    -0.782    -0.279    -0.261  0.7124  0.0910  0.6958
    16 C(13)  Bbb    -0.0032    -0.427    -0.152    -0.142 -0.1963  0.9778  0.0731
              Bcc     0.0090     1.210     0.432     0.403 -0.6737 -0.1887  0.7145
 
              Baa    -0.0058    -3.110    -1.110    -1.037  0.6451 -0.3085  0.6991
    17 H(1)   Bbb    -0.0028    -1.486    -0.530    -0.496  0.3814  0.9228  0.0554
              Bcc     0.0086     4.596     1.640     1.533 -0.6622  0.2309  0.7129
 
              Baa    -0.0025    -1.350    -0.482    -0.450  0.0820  0.9509 -0.2985
    18 H(1)   Bbb    -0.0023    -1.228    -0.438    -0.410  0.8965  0.0605  0.4389
              Bcc     0.0048     2.577     0.920     0.860 -0.4354  0.3036  0.8475
 
              Baa    -0.0019    -1.024    -0.365    -0.342  0.4359 -0.2322  0.8695
    19 H(1)   Bbb    -0.0015    -0.805    -0.287    -0.268  0.3722  0.9262  0.0607
              Bcc     0.0034     1.829     0.653     0.610  0.8194 -0.2972 -0.4902
 
              Baa    -0.0056    -0.755    -0.270    -0.252 -0.3285 -0.6125  0.7190
    20 C(13)  Bbb     0.0016     0.216     0.077     0.072  0.5065  0.5283  0.6815
              Bcc     0.0040     0.539     0.192     0.180  0.7972 -0.5880 -0.1367
 
              Baa    -0.0022    -1.170    -0.418    -0.390  0.1097  0.1783  0.9778
    21 H(1)   Bbb     0.0001     0.029     0.010     0.010  0.7839  0.5894 -0.1954
              Bcc     0.0021     1.142     0.407     0.381 -0.6112  0.7879 -0.0751
 
              Baa    -0.0011    -0.575    -0.205    -0.192  0.0256 -0.0126  0.9996
    22 H(1)   Bbb    -0.0006    -0.305    -0.109    -0.102  0.7286  0.6849 -0.0100
              Bcc     0.0016     0.880     0.314     0.294 -0.6845  0.7285  0.0267
 
              Baa    -0.0048    -2.573    -0.918    -0.858 -0.5127 -0.1106  0.8514
    23 H(1)   Bbb    -0.0023    -1.236    -0.441    -0.412  0.6051  0.6569  0.4498
              Bcc     0.0071     3.809     1.359     1.271 -0.6090  0.7458 -0.2699
 
              Baa    -0.0016    -0.873    -0.311    -0.291  0.3132 -0.3639  0.8772
    24 H(1)   Bbb    -0.0001    -0.028    -0.010    -0.009  0.5833  0.8026  0.1247
              Bcc     0.0017     0.901     0.322     0.301  0.7494 -0.4726 -0.4637
 
              Baa    -0.0042    -2.254    -0.804    -0.752  0.3899 -0.1509  0.9084
    25 H(1)   Bbb    -0.0028    -1.479    -0.528    -0.493  0.5643  0.8187 -0.1062
              Bcc     0.0070     3.733     1.332     1.245  0.7277 -0.5540 -0.4044
 
              Baa    -0.0195    -2.616    -0.933    -0.873  0.5799  0.0461  0.8134
    26 C(13)  Bbb    -0.0134    -1.799    -0.642    -0.600  0.1913  0.9628 -0.1910
              Bcc     0.0329     4.415     1.575     1.473  0.7919 -0.2663 -0.5495
 
              Baa    -0.0029    -1.540    -0.550    -0.514  0.2246  0.2149  0.9505
    27 H(1)   Bbb     0.0006     0.335     0.120     0.112  0.8682  0.3988 -0.2954
              Bcc     0.0023     1.205     0.430     0.402 -0.4425  0.8915 -0.0970
 
              Baa    -0.0020    -0.266    -0.095    -0.089 -0.2588 -0.1049  0.9602
    28 C(13)  Bbb    -0.0011    -0.149    -0.053    -0.050  0.0329  0.9926  0.1172
              Bcc     0.0031     0.416     0.148     0.139  0.9654 -0.0619  0.2534
 
              Baa    -0.0317    -4.257    -1.519    -1.420  0.7259 -0.2204 -0.6515
    29 C(13)  Bbb     0.0149     1.996     0.712     0.666  0.2590  0.9651 -0.0379
              Bcc     0.0168     2.261     0.807     0.754  0.6371 -0.1412  0.7577
 
              Baa    -0.0012    -0.649    -0.231    -0.216  0.1285  0.9144 -0.3839
    30 H(1)   Bbb    -0.0008    -0.435    -0.155    -0.145 -0.0888  0.3962  0.9139
              Bcc     0.0020     1.084     0.387     0.362  0.9877 -0.0834  0.1321
 
              Baa    -0.0047    -2.515    -0.897    -0.839 -0.2065 -0.1421  0.9681
    31 H(1)   Bbb    -0.0043    -2.306    -0.823    -0.769  0.0862  0.9829  0.1626
              Bcc     0.0090     4.821     1.720     1.608  0.9746 -0.1171  0.1908
 
              Baa    -0.0008    -0.110    -0.039    -0.037  0.3814  0.8781 -0.2889
    32 C(13)  Bbb    -0.0006    -0.077    -0.027    -0.026 -0.3769  0.4331  0.8188
              Bcc     0.0014     0.187     0.067     0.062  0.8441 -0.2035  0.4961
 
              Baa    -0.0007    -0.350    -0.125    -0.117 -0.5094 -0.4264  0.7475
    33 H(1)   Bbb    -0.0004    -0.237    -0.084    -0.079 -0.0203  0.8743  0.4849
              Bcc     0.0011     0.586     0.209     0.196  0.8603 -0.2318  0.4540
 
              Baa    -0.0004    -0.217    -0.077    -0.072 -0.1787 -0.0194  0.9837
    34 H(1)   Bbb    -0.0002    -0.127    -0.045    -0.042  0.0537  0.9981  0.0295
              Bcc     0.0006     0.344     0.123     0.115  0.9824 -0.0581  0.1774
 
              Baa    -0.0006    -0.319    -0.114    -0.106 -0.5212 -0.2476  0.8167
    35 H(1)   Bbb    -0.0003    -0.154    -0.055    -0.051 -0.0012  0.9572  0.2894
              Bcc     0.0009     0.473     0.169     0.158  0.8534 -0.1499  0.4992
 
              Baa    -0.0015    -0.817    -0.292    -0.273 -0.1194  0.9686  0.2182
    36 H(1)   Bbb    -0.0010    -0.558    -0.199    -0.186 -0.5278 -0.2481  0.8123
              Bcc     0.0026     1.375     0.490     0.459  0.8409 -0.0182  0.5409
 
              Baa    -0.0012    -0.634    -0.226    -0.211  0.2104 -0.2391  0.9479
    37 H(1)   Bbb    -0.0010    -0.545    -0.194    -0.182  0.1071  0.9694  0.2208
              Bcc     0.0022     1.178     0.420     0.393  0.9717 -0.0551 -0.2296
 
              Baa    -0.0007     0.052     0.019     0.017  0.1927 -0.2945  0.9360
    38 O(17)  Bbb    -0.0006     0.044     0.016     0.015  0.0930  0.9551  0.2813
              Bcc     0.0013    -0.096    -0.034    -0.032  0.9768 -0.0329 -0.2115
 
              Baa    -0.0006    -0.326    -0.116    -0.109  0.1267 -0.1021  0.9867
    39 H(1)   Bbb    -0.0005    -0.289    -0.103    -0.097  0.1944  0.9780  0.0762
              Bcc     0.0012     0.616     0.220     0.205  0.9727 -0.1821 -0.1438
 

 ---------------------------------------------------------------------------------

 Unable to Open any file for archive entry.
 1\1\GINC-P08R01N26\FOpt\UHF\6-31G(d)\C14H20O5(1-,2)\JL3566\26-Oct-2021
 \1\\# HF/6-31G* Opt=(Z-matrix,MaxCycles=100) Geom=PrintInputOrient\\<q
 mtool> simtype="Geometry optimization" </qmtool> Q1H-ACC-O2-120b\\-1,2
 \C,0,-0.2269999981,-1.5310000181,-0.6560000181\C,0,0.2840000093,-2.911
 9999409,-0.9819999933\C,0,-1.6100000143,-1.4620000124,-0.1850000024\O,
 0,-2.3350000381,-2.4830000401,-0.0659999996\C,0,-2.1180000305,-0.12999
 99952,0.1280000061\O,0,-3.4419999123,0.0240000002,0.5090000033\C,0,-1.
 3279999495,0.9879999757,0.0089999996\O,0,-1.8309999704,2.2200000286,0.
 3880000114\C,0,0.0309999995,0.9350000024,-0.4970000088\O,0,0.722000002
 9,2.0050001144,-0.6690000296\C,0,0.5389999747,-0.3939999938,-0.7929999
 828\C,0,1.9720000029,-0.4300000072,-1.2539999485\H,0,1.0260000229,-3.2
 60999918,-0.2540000081\H,0,-0.5630000234,-3.6010000706,-0.9589999914\H
 ,0,0.7549999952,-2.9479999542,-1.9700000286\C,0,-3.7509999275,-0.63499
 99905,1.7410000563\H,0,-3.5380001068,-1.7020000219,1.6699999571\H,0,-3
 .1830000877,-0.1840000004,2.5659999847\H,0,-4.8179998398,-0.4679999948
 ,1.9090000391\C,0,-2.132999897,3.0239999294,-0.75\H,0,-2.9059998989,2.
 5460000038,-1.3650000095\H,0,-2.5150001049,3.9719998837,-0.3610000014\
 H,0,-1.2300000191,3.2000000477,-1.3400000334\H,0,2.1019999981,-1.17499
 99523,-2.0529999733\H,0,2.2119998932,0.5500000119,-1.6720000505\C,0,2.
 888999939,-0.7829999924,-0.1150000021\H,0,2.8800001144,-1.8339999914,0
 .1790000051\C,0,3.7630000114,1.5349999666,0.3269999921\C,0,3.671000003
 8,0.0529999994,0.5820000172\H,0,4.6760001183,1.7840000391,-0.232999995
 4\H,0,2.8849999905,1.9040000439,-0.2070000023\C,0,4.5430002213,-0.4609
 999955,1.6979999542\H,0,4.4499998093,-1.5460000038,1.8140000105\H,0,5.
 5989999771,-0.2240000069,1.5119999647\H,0,4.2769999504,0.0109999999,2.
 6530001163\H,0,3.8210000992,2.0710000992,1.2819999456\H,4,rAH,3,120.,5
 ,0.,0\X,37,1.,4,90.,3,0.,0\O,37,0.9527,38,90.,4,180.,0\H,39,0.9527,37,
 104.52,38,dih,0\\rAH=4.01521161\dih=40.74917675\\Version=ES64L-G16RevC
 .01\State=2-A\HF=-916.0487151\S2=0.874284\S2-1=0.\S2A=0.759366\RMSD=9.
 839e-09\RMSF=8.531e-03\Dipole=0.8532352,0.0405347,-0.1067299\Quadrupol
 e=-12.4036864,-2.2488127,14.6524991,-16.8610378,7.9941361,0.9861889\PG
 =C01 [X(C14H20O5)]\\@
 The archive entry for this job was punched.


 THE CAUTIOUS SELDOM ERR...CONFUCIUS                   
 Job cpu time:       0 days  1 hours 43 minutes 27.1 seconds.
 Elapsed time:       0 days  0 hours 26 minutes  3.8 seconds.
 File lengths (MBytes):  RWF=    176 Int=      0 D2E=      0 Chk=     16 Scr=      8
 Normal termination of Gaussian 16 at Tue Oct 26 23:29:43 2021.
