 Entering Gaussian System, Link 0=g16
 Initial command:
 /gpfs/loomis/apps/avx/software/Gaussian/16-C.01_AVX/g16/l1.exe "/home/jl3566/scratch60/g16/Gau-30248.inp" -scrdir="/home/jl3566/scratch60/g16/"
 Entering Link 1 = /gpfs/loomis/apps/avx/software/Gaussian/16-C.01_AVX/g16/l1.exe PID=     30251.
  
 Copyright (c) 1988-2019, Gaussian, Inc.  All Rights Reserved.
  
 This is part of the Gaussian(R) 16 program.  It is based on
 the Gaussian(R) 09 system (copyright 2009, Gaussian, Inc.),
 the Gaussian(R) 03 system (copyright 2003, Gaussian, Inc.),
 the Gaussian(R) 98 system (copyright 1998, Gaussian, Inc.),
 the Gaussian(R) 94 system (copyright 1995, Gaussian, Inc.),
 the Gaussian 92(TM) system (copyright 1992, Gaussian, Inc.),
 the Gaussian 90(TM) system (copyright 1990, Gaussian, Inc.),
 the Gaussian 88(TM) system (copyright 1988, Gaussian, Inc.),
 the Gaussian 86(TM) system (copyright 1986, Carnegie Mellon
 University), and the Gaussian 82(TM) system (copyright 1983,
 Carnegie Mellon University). Gaussian is a federally registered
 trademark of Gaussian, Inc.
  
 This software contains proprietary and confidential information,
 including trade secrets, belonging to Gaussian, Inc.
  
 This software is provided under written license and may be
 used, copied, transmitted, or stored only in accord with that
 written license.
  
 The following legend is applicable only to US Government
 contracts under FAR:
  
                    RESTRICTED RIGHTS LEGEND
  
 Use, reproduction and disclosure by the US Government is
 subject to restrictions as set forth in subparagraphs (a)
 and (c) of the Commercial Computer Software - Restricted
 Rights clause in FAR 52.227-19.
  
 Gaussian, Inc.
 340 Quinnipiac St., Bldg. 40, Wallingford CT 06492
  
  
 ---------------------------------------------------------------
 Warning -- This program may not be used in any manner that
 competes with the business of Gaussian, Inc. or will provide
 assistance to any competitor of Gaussian, Inc.  The licensee
 of this program is prohibited from giving any competitor of
 Gaussian, Inc. access to this program.  By using this program,
 the user acknowledges that Gaussian, Inc. is engaged in the
 business of creating and licensing software in the field of
 computational chemistry and represents and warrants to the
 licensee that it is not a competitor of Gaussian, Inc. and that
 it will not use this program in any manner prohibited above.
 ---------------------------------------------------------------
  

 Cite this work as:
 Gaussian 16, Revision C.01,
 M. J. Frisch, G. W. Trucks, H. B. Schlegel, G. E. Scuseria, 
 M. A. Robb, J. R. Cheeseman, G. Scalmani, V. Barone, 
 G. A. Petersson, H. Nakatsuji, X. Li, M. Caricato, A. V. Marenich, 
 J. Bloino, B. G. Janesko, R. Gomperts, B. Mennucci, H. P. Hratchian, 
 J. V. Ortiz, A. F. Izmaylov, J. L. Sonnenberg, D. Williams-Young, 
 F. Ding, F. Lipparini, F. Egidi, J. Goings, B. Peng, A. Petrone, 
 T. Henderson, D. Ranasinghe, V. G. Zakrzewski, J. Gao, N. Rega, 
 G. Zheng, W. Liang, M. Hada, M. Ehara, K. Toyota, R. Fukuda, 
 J. Hasegawa, M. Ishida, T. Nakajima, Y. Honda, O. Kitao, H. Nakai, 
 T. Vreven, K. Throssell, J. A. Montgomery, Jr., J. E. Peralta, 
 F. Ogliaro, M. J. Bearpark, J. J. Heyd, E. N. Brothers, K. N. Kudin, 
 V. N. Staroverov, T. A. Keith, R. Kobayashi, J. Normand, 
 K. Raghavachari, A. P. Rendell, J. C. Burant, S. S. Iyengar, 
 J. Tomasi, M. Cossi, J. M. Millam, M. Klene, C. Adamo, R. Cammi, 
 J. W. Ochterski, R. L. Martin, K. Morokuma, O. Farkas, 
 J. B. Foresman, and D. J. Fox, Gaussian, Inc., Wallingford CT, 2019.
 
 ******************************************
 Gaussian 16:  ES64L-G16RevC.01  3-Jul-2019
                26-Oct-2021 
 ******************************************
 %chk=Q1H-ACC-O4.chk
 %nproc=4
 Will use up to    4 processors via shared memory.
 %mem=4GB
 --------------------------------------------------------------
 # HF/6-31G* Opt=(Z-matrix,MaxCycles=100) Geom=PrintInputOrient
 --------------------------------------------------------------
 1/6=100,10=7,18=40,38=1/1,3;
 2/9=2000,12=2,17=6,18=5,29=3,40=1/2;
 3/5=1,6=6,7=1,11=9,25=1,30=1,71=1/1,2,3;
 4//1;
 5/5=2,38=5/2;
 6/7=2,8=2,9=2,10=2,28=1/1;
 7/29=1/1,2,3,16;
 1/6=100,10=7,18=40/3(2);
 2/9=2000,29=3/2;
 99//99;
 2/9=2000,29=3/2;
 3/5=1,6=6,7=1,11=9,25=1,30=1,71=1/1,2,3;
 4/5=5,16=3,69=1/1;
 5/5=2,38=5/2;
 7//1,2,3,16;
 1/6=100,18=40/3(-5);
 2/9=2000,29=3/2;
 6/7=2,8=2,9=2,10=2,19=2,28=1/1;
 99/9=1/99;
 -------------------------------------------------------------
 <qmtool> simtype="Geometry optimization" </qmtool> Q1H-ACC-O4
 -------------------------------------------------------------
 Symbolic Z-matrix:
 Charge = -1 Multiplicity = 2
 C1                   -0.227    -1.531    -0.656 
 C2                    0.284    -2.912    -0.982 
 C3                   -1.61     -1.462    -0.185 
 O4                   -2.335    -2.483    -0.066 
 C5                   -2.118    -0.13      0.128 
 O6                   -3.442     0.024     0.509 
 C7                   -1.328     0.988     0.009 
 O8                   -1.831     2.22      0.388 
 C9                    0.031     0.935    -0.497 
 O10                   0.722     2.005    -0.669 
 C11                   0.539    -0.394    -0.793 
 C12                   1.972    -0.43     -1.254 
 H13                   1.026    -3.261    -0.254 
 H14                  -0.563    -3.601    -0.959 
 H15                   0.755    -2.948    -1.97 
 C16                  -3.751    -0.635     1.741 
 H17                  -3.538    -1.702     1.67 
 H18                  -3.183    -0.184     2.566 
 H19                  -4.818    -0.468     1.909 
 C20                  -2.133     3.024    -0.75 
 H21                  -2.906     2.546    -1.365 
 H22                  -2.515     3.972    -0.361 
 H23                  -1.23      3.2      -1.34 
 H24                   2.102    -1.175    -2.053 
 H25                   2.212     0.55     -1.672 
 C26                   2.889    -0.783    -0.115 
 H27                   2.88     -1.834     0.179 
 C28                   3.763     1.535     0.327 
 C29                   3.671     0.053     0.582 
 H30                   4.676     1.784    -0.233 
 H31                   2.885     1.904    -0.207 
 C32                   4.543    -0.461     1.698 
 H33                   4.45     -1.546     1.814 
 H34                   5.599    -0.224     1.512 
 H35                   4.277     0.011     2.653 
 H36                   3.821     2.071     1.282 
 H1w                  O8   rAH      C7    124.43   C20   180.     0
 x                    H1w   1.       O8    90.      C7    0.       0
 Ow                   H1w   0.9572   x     90.      O8    180.     0
 H2w                  Ow    0.9572   H1w   104.52   x    dih      0
       Variables:
  rAH                   2.                       
  dih                   0.                       
 

 GradGradGradGradGradGradGradGradGradGradGradGradGradGradGradGradGradGrad
 Berny optimization.
 Initialization pass.
                       ----------------------------
                       !    Initial Parameters    !
                       ! (Angstroms and Degrees)  !
 ----------------------                            ----------------------
 !      Name          Value   Derivative information (Atomic Units)     !
 ------------------------------------------------------------------------
 !       rAH         2.0      estimate D2E/DX2                          !
 !       dih         0.0      estimate D2E/DX2                          !
 ------------------------------------------------------------------------
 Trust Radius=3.00D-01 FncErr=1.00D-07 GrdErr=1.00D-07 EigMax=2.50D+02 EigMin=1.00D-04
 Number of steps in this run=    100 maximum allowed number of steps=    100.
 GradGradGradGradGradGradGradGradGradGradGradGradGradGradGradGradGradGrad

 ---------------------------------------------------------------------------------------------------
                            Z-MATRIX (ANGSTROMS AND DEGREES)
   CD    Cent   Atom    N1       Length/X        N2       Alpha/Y        N3        Beta/Z          J
 ---------------------------------------------------------------------------------------------------
      1      1  C        0  -0.227000         -1.531000         -0.656000
      2      2  C        0   0.284000         -2.912000         -0.982000
      3      3  C        0  -1.610000         -1.462000         -0.185000
      4      4  O        0  -2.335000         -2.483000         -0.066000
      5      5  C        0  -2.118000         -0.130000          0.128000
      6      6  O        0  -3.442000          0.024000          0.509000
      7      7  C        0  -1.328000          0.988000          0.009000
      8      8  O        0  -1.831000          2.220000          0.388000
      9      9  C        0   0.031000          0.935000         -0.497000
     10     10  O        0   0.722000          2.005000         -0.669000
     11     11  C        0   0.539000         -0.394000         -0.793000
     12     12  C        0   1.972000         -0.430000         -1.254000
     13     13  H        0   1.026000         -3.261000         -0.254000
     14     14  H        0  -0.563000         -3.601000         -0.959000
     15     15  H        0   0.755000         -2.948000         -1.970000
     16     16  C        0  -3.751000         -0.635000          1.741000
     17     17  H        0  -3.538000         -1.702000          1.670000
     18     18  H        0  -3.183000         -0.184000          2.566000
     19     19  H        0  -4.818000         -0.468000          1.909000
     20     20  C        0  -2.133000          3.024000         -0.750000
     21     21  H        0  -2.906000          2.546000         -1.365000
     22     22  H        0  -2.515000          3.972000         -0.361000
     23     23  H        0  -1.230000          3.200000         -1.340000
     24     24  H        0   2.102000         -1.175000         -2.053000
     25     25  H        0   2.212000          0.550000         -1.672000
     26     26  C        0   2.889000         -0.783000         -0.115000
     27     27  H        0   2.880000         -1.834000          0.179000
     28     28  C        0   3.763000          1.535000          0.327000
     29     29  C        0   3.671000          0.053000          0.582000
     30     30  H        0   4.676000          1.784000         -0.233000
     31     31  H        0   2.885000          1.904000         -0.207000
     32     32  C        0   4.543000         -0.461000          1.698000
     33     33  H        0   4.450000         -1.546000          1.814000
     34     34  H        0   5.599000         -0.224000          1.512000
     35     35  H        0   4.277000          0.011000          2.653000
     36     36  H        0   3.821000          2.071000          1.282000
     37     37  H        8   2.000000(    36)      7  124.430(    74)     20  180.000(   111)      0
     38         X       37   1.000000(    37)      8   90.000(    75)      7    0.000(   112)      0
     39     38  O       37   0.957200(    38)     38   90.000(    76)      8  180.000(   113)      0
     40     39  H       39   0.957200(    39)     37  104.520(    77)     38    0.000(   114)      0
 ---------------------------------------------------------------------------------------------------
                         Z-Matrix orientation:                         
 ---------------------------------------------------------------------
 Center     Atomic      Atomic             Coordinates (Angstroms)
 Number     Number       Type             X           Y           Z
 ---------------------------------------------------------------------
      1          6           0       -0.227000   -1.531000   -0.656000
      2          6           0        0.284000   -2.912000   -0.982000
      3          6           0       -1.610000   -1.462000   -0.185000
      4          8           0       -2.335000   -2.483000   -0.066000
      5          6           0       -2.118000   -0.130000    0.128000
      6          8           0       -3.442000    0.024000    0.509000
      7          6           0       -1.328000    0.988000    0.009000
      8          8           0       -1.831000    2.220000    0.388000
      9          6           0        0.031000    0.935000   -0.497000
     10          8           0        0.722000    2.005000   -0.669000
     11          6           0        0.539000   -0.394000   -0.793000
     12          6           0        1.972000   -0.430000   -1.254000
     13          1           0        1.026000   -3.261000   -0.254000
     14          1           0       -0.563000   -3.601000   -0.959000
     15          1           0        0.755000   -2.948000   -1.970000
     16          6           0       -3.751000   -0.635000    1.741000
     17          1           0       -3.538000   -1.702000    1.670000
     18          1           0       -3.183000   -0.184000    2.566000
     19          1           0       -4.818000   -0.468000    1.909000
     20          6           0       -2.133000    3.024000   -0.750000
     21          1           0       -2.906000    2.546000   -1.365000
     22          1           0       -2.515000    3.972000   -0.361000
     23          1           0       -1.230000    3.200000   -1.340000
     24          1           0        2.102000   -1.175000   -2.053000
     25          1           0        2.212000    0.550000   -1.672000
     26          6           0        2.889000   -0.783000   -0.115000
     27          1           0        2.880000   -1.834000    0.179000
     28          6           0        3.763000    1.535000    0.327000
     29          6           0        3.671000    0.053000    0.582000
     30          1           0        4.676000    1.784000   -0.233000
     31          1           0        2.885000    1.904000   -0.207000
     32          6           0        4.543000   -0.461000    1.698000
     33          1           0        4.450000   -1.546000    1.814000
     34          1           0        5.599000   -0.224000    1.512000
     35          1           0        4.277000    0.011000    2.653000
     36          1           0        3.821000    2.071000    1.282000
     37          1           0       -2.099230    2.797201    2.284020
     38         -1           0       -1.750420    1.915519    2.601775
     39          8           0       -2.227604    3.073450    3.191455
     40          1           0       -1.936574    2.325720    3.713405
 ---------------------------------------------------------------------
                    Distance matrix (angstroms):
                    1          2          3          4          5
     1  C    0.000000
     2  C    1.508164   0.000000
     3  C    1.462632   2.514944   0.000000
     4  O    2.387063   2.807536   1.257866   0.000000
     5  C    2.480592   3.839431   1.459540   2.370935   0.000000
     6  O    3.756524   4.972550   2.458873   2.800201   1.386309
     7  C    2.828389   4.334815   2.473795   3.614902   1.374112
     8  O    4.211028   5.717303   3.732867   4.751667   2.381695
     9  C    2.484552   3.885697   2.921615   4.179287   2.478518
    10  O    3.661157   4.946383   4.206254   5.463607   3.641296
    11  C    1.377786   2.537926   2.475579   3.626614   2.824462
    12  C    2.530890   3.013910   3.877952   4.916951   4.327589
    13  H    2.173594   1.096517   3.192124   3.454989   4.453518
    14  H    2.118869   1.092089   2.504118   2.277577   3.955684
    15  H    2.167674   1.095117   3.314762   3.659172   4.538376
    16  C    4.355112   5.374075   2.996212   2.947102   2.350209
    17  H    4.049968   4.806754   2.686226   2.251858   2.620181
    18  H    4.575328   5.661305   3.416960   3.596099   2.661012
    19  H    5.365303   6.353064   3.957794   3.758476   3.252108
    20  C    4.938593   6.413408   4.551588   5.552991   3.273962
    21  H    4.929670   6.333447   4.374481   5.225350   3.164012
    22  H    5.966991   7.457177   5.511656   6.464244   4.150076
    23  H    4.884284   6.306893   4.817953   5.927950   3.745994
    24  H    2.739085   2.733008   4.165422   5.034481   4.863865
    25  H    3.363263   4.022279   4.568041   5.696800   4.738280
    26  C    3.249868   3.474242   4.550488   5.493867   5.055245
    27  H    3.231483   3.041253   4.520064   5.260936   5.280741
    28  C    5.127060   5.795924   6.173596   7.313301   6.115389
    29  C    4.385898   4.765406   5.547294   6.551583   5.809658
    30  H    5.933596   6.473259   7.074787   8.209099   7.067684
    31  H    4.656755   5.528081   5.615645   6.820121   5.411043
    32  C    5.425783   5.597221   6.512074   7.382890   6.851524
    33  H    5.289183   5.199916   6.381744   7.102717   6.927213
    34  H    6.352224   6.457136   7.508804   8.398900   7.840688
    35  H    5.797694   6.140131   6.699309   7.571759   6.876884
    36  H    5.754698   6.516621   6.643037   7.775111   6.438000
    37  H    5.557183   6.995831   4.947343   5.784350   3.635558
    38  X    4.981204   6.347223   4.381035   5.177425   3.230917
    39  O    6.325052   7.716961   5.687899   6.441792   4.433831
    40  H    6.073601   7.376414   5.445276   6.129146   4.349552
                    6          7          8          9         10
     6  O    0.000000
     7  C    2.376614   0.000000
     8  O    2.726239   1.383645   0.000000
     9  C    3.728765   1.451112   2.429299   0.000000
    10  O    4.759300   2.386729   2.771513   1.285288   0.000000
    11  C    4.209310   2.457400   3.720841   1.453245   2.409163
    12  C    5.711889   3.807347   4.917466   2.490734   2.798920
    13  H    5.597894   4.864616   6.214175   4.319200   5.291068
    14  H    4.856366   4.751965   6.107886   4.597997   5.758695
    15  H    5.709031   4.873133   6.241457   4.215637   5.121123
    16  C    1.430939   3.391885   3.697030   4.666591   5.725856
    17  H    2.082358   3.857346   4.465362   4.938362   6.112313
    18  H    2.083649   3.369400   3.514371   4.578638   5.523221
    19  H    2.023719   4.232025   4.296621   5.591963   6.591920
    20  C    3.506931   2.317197   1.425715   3.018414   3.032482
    21  H    3.187422   2.608702   2.082045   3.460450   3.733561
    22  H    4.147642   3.232665   2.024441   3.965348   3.800279
    23  H    4.289373   2.592749   2.075472   2.725985   2.385072
    24  H    6.223936   4.549210   5.740470   3.340999   3.732594
    25  H    6.082857   3.943248   4.835116   2.507112   2.311522
    26  C    6.412658   4.575468   5.616887   3.356428   3.574318
    27  H    6.597632   5.069502   6.218691   4.030030   4.484862
    28  C    7.363985   5.130167   5.636114   3.868695   3.234285
    29  C    7.113434   5.117866   5.916547   3.897661   3.751254
    30  H    8.339670   6.061369   6.551091   4.729326   3.984100
    31  H    6.639125   4.316837   4.763878   3.027933   2.214094
    32  C    8.087594   6.278612   7.037879   5.208165   5.126781
    33  H    8.151784   6.562352   7.461045   5.569887   5.716019
    34  H    9.099846   7.191056   7.901988   6.031748   5.788811
    35  H    8.011234   6.273858   6.878777   5.367010   5.258303
    36  H    7.585440   5.413467   5.724207   4.338138   3.662589
    37  H    3.555893   3.007278   2.000000   3.967335   4.160198
    38  X    3.289224   2.785895   2.236068   3.706384   4.101077
    39  O    4.239041   3.909784   2.957200   4.824828   4.974421
    40  H    4.222847   3.985282   3.328760   4.851078   5.135791
                   11         12         13         14         15
    11  C    0.000000
    12  C    1.505758   0.000000
    13  H    2.957597   3.147932   0.000000
    14  H    3.395116   4.070441   1.771312   0.000000
    15  H    2.820443   2.886879   1.765238   1.784840   0.000000
    16  C    4.988320   6.462567   5.804794   5.123524   6.278975
    17  H    4.939551   6.366150   5.192529   4.400962   5.764717
    18  H    5.017994   6.420821   5.927564   5.564703   6.612325
    19  H    6.000311   7.490668   6.828745   6.012166   7.228787
    20  C    4.338681   5.388428   7.051703   6.811696   6.744904
    21  H    4.564954   5.715224   7.100436   6.590910   6.629704
    22  H    5.345605   6.348876   8.053969   7.843356   7.821009
    23  H    4.042945   4.841188   6.929174   6.844242   6.491150
    24  H    2.154189   1.100148   2.957291   3.766237   2.228189
    25  H    2.112512   1.092119   4.235687   5.043788   3.801007
    26  C    2.476591   1.504267   3.103317   4.535390   3.561208
    27  H    2.915247   2.202083   2.379314   4.033805   3.220997
    28  C    3.920410   3.093294   5.552508   6.837146   5.866989
    29  C    3.449617   2.547702   4.321749   5.801134   4.901200
    30  H    4.708721   3.640859   6.226955   7.548008   6.386175
    31  H    3.335853   2.716125   5.489564   6.539055   5.584530
    32  C    4.716099   3.914755   4.900979   6.556713   5.829952
    33  H    4.839367   4.098605   4.352198   6.086273   5.471497
    34  H    5.562870   4.565996   5.766667   7.448504   6.558112
    35  H    5.100155   4.557648   5.452122   7.036952   6.521679
    36  H    4.599280   4.013116   6.213014   7.510867   6.720582
    37  H    5.158689   6.285485   7.273954   7.335814   7.697444
    38  X    4.701044   5.850202   6.531486   6.672411   7.129661
    39  O    5.962650   7.047901   7.910901   8.034019   8.473158
    40  H    5.816617   6.895365   7.465158   7.670990   8.207179
                   16         17         18         19         20
    16  C    0.000000
    17  H    1.090366   0.000000
    18  H    1.098476   1.798100   0.000000
    19  H    1.092978   1.793956   1.784805   0.000000
    20  C    4.712885   5.492313   4.731767   5.145247   0.000000
    21  H    4.525486   5.258912   4.793995   4.843451   1.097378
    22  H    5.212538   6.112754   5.126976   5.492750   1.093595
    23  H    5.527678   6.198110   5.524717   6.073217   1.092925
    24  H    6.995973   6.778500   7.088615   8.005229   6.104476
    25  H    6.972099   7.021607   6.899668   7.954922   5.084268
    26  C    6.896103   6.733284   6.664514   7.974562   6.333795
    27  H    6.917196   6.590238   6.721625   8.007375   7.042256
    28  C    7.947861   8.098544   7.497666   8.952558   6.175748
    29  C    7.543388   7.498897   7.139310   8.607874   6.654884
    30  H    8.986800   9.123782   8.571541   9.989780   6.940272
    31  H    7.367341   7.601401   6.990701   8.333069   5.170065
    32  C    8.295937   8.175783   7.779539   9.363380   7.918769
    33  H    8.251766   7.990821   7.789945   9.330966   8.413969
    34  H    9.361830   9.257117   8.845114  10.427417   8.686194
    35  H    8.105421   8.060700   7.463055   9.137943   7.857905
    36  H    8.054086   8.278947   7.469250   9.026183   6.362967
    37  H    3.847496   4.763391   3.184593   4.265430   3.042672
    38  X    3.353863   4.141267   2.541957   3.946029   3.550984
    39  O    4.263468   5.180433   3.451805   4.571292   3.942900
    40  H    3.993543   4.791930   3.028004   4.400382   4.521965
                   21         22         23         24         25
    21  H    0.000000
    22  H    1.787281   0.000000
    23  H    1.799254   1.790433   0.000000
    24  H    6.276882   7.118368   5.545378   0.000000
    25  H    5.502017   5.981081   4.356614   1.769996   0.000000
    26  C    6.799027   7.202344   5.859273   2.128116   2.158580
    27  H    7.419308   7.944008   6.673876   2.453852   3.091259
    28  C    6.954175   6.769461   5.520975   3.970821   2.715111
    29  C    7.298136   7.383387   6.133310   3.303478   2.730606
    30  H    7.703817   7.517593   6.173438   4.323605   3.108822
    31  H    5.940438   5.784491   4.460553   3.674377   2.105343
    32  C    8.597187   8.585240   7.480635   4.531918   4.220496
    33  H    8.997846   9.148233   8.045783   4.539211   4.642635
    34  H    9.396013   9.324781   8.154319   5.083565   4.712611
    35  H    8.611971   8.420510   7.512711   5.318238   4.822901
    36  H    7.244637   6.816021   5.801907   4.961220   3.691672
    37  H    3.745574   2.923892   3.748510   7.227617   6.267911
    38  X    4.179494   3.686696   4.178315   6.786706   5.985864
    39  O    4.636778   3.675585   4.641693   8.018672   7.052027
    40  H    5.174796   4.432335   5.176922   7.862350   7.026125
                   26         27         28         29         30
    26  C    0.000000
    27  H    1.091384   0.000000
    28  C    2.516419   3.485937   0.000000
    29  C    1.340235   2.085392   1.506590   0.000000
    30  H    3.129981   4.060207   1.099623   2.161160   0.000000
    31  H    2.688578   3.757880   1.091880   2.160213   1.795204
    32  C    2.475150   2.637813   2.544024   1.506664   2.964199
    33  H    2.596138   2.284966   3.489369   2.163669   3.915378
    34  H    3.209939   3.429570   2.805210   2.158428   2.815851
    35  H    3.196687   3.387670   2.827905   2.158250   3.410532
    36  H    3.311427   4.165467   1.096670   2.141220   1.763128
    37  H    6.592084   7.118417   6.307838   6.612342   7.298336
    38  X    6.015570   6.431914   5.976387   6.077850   7.025106
    39  O    7.210027   7.697115   6.816104   7.122212   7.813407
    40  H    6.899782   7.279744   6.676685   6.812917   7.719696
                   31         32         33         34         35
    31  H    0.000000
    32  C    3.459944   0.000000
    33  H    4.293736   1.095139   0.000000
    34  H    3.853458   1.098135   1.777383   0.000000
    35  H    3.701448   1.097982   1.777104   1.762042   0.000000
    36  H    1.766665   2.665589   3.709630   2.912252   2.516183
    37  H    5.643185   7.421490   7.872530   8.305806   6.968168
    38  X    5.420006   6.787620   7.144782   7.731696   6.321361
    39  O    6.249466   7.782277   8.235721   8.657337   7.209605
    40  H    6.228563   7.335703   7.706249   8.254219   6.714975
                   36         37         38         39         40
    36  H    0.000000
    37  H    6.048184   0.000000
    38  X    5.727714   1.000000   0.000000
    39  O    6.421568   0.957200   1.384280   0.000000
    40  H    6.255100   1.513901   1.199434   0.957200   0.000000
 Stoichiometry    C14H20O5(1-,2)
 Framework group  C1[X(C14H20O5)]
 Deg. of freedom   111
 Full point group                 C1      NOp   1
 Largest Abelian subgroup         C1      NOp   1
 Largest concise Abelian subgroup C1      NOp   1
                         Standard orientation:                         
 ---------------------------------------------------------------------
 Center     Atomic      Atomic             Coordinates (Angstroms)
 Number     Number       Type             X           Y           Z
 ---------------------------------------------------------------------
      1          6           0       -0.252954    1.899176   -0.344333
      2          6           0       -0.979277    3.216122   -0.231783
      3          6           0        1.166668    1.926548    0.006684
      4          8           0        1.752545    2.978454    0.370649
      5          6           0        1.881985    0.659148   -0.104116
      6          8           0        3.246116    0.621098    0.139913
      7          6           0        1.245406   -0.495167   -0.492069
      8          8           0        1.948673   -1.686610   -0.510856
      9          6           0       -0.151886   -0.524280   -0.882524
     10          8           0       -0.702847   -1.602687   -1.313156
     11          6           0       -0.865080    0.735620   -0.756321
     12          6           0       -2.328425    0.666196   -1.104326
     13          1           0       -1.685241    3.228744    0.607147
     14          1           0       -0.237156    3.999039   -0.061615
     15          1           0       -1.547685    3.445277   -1.139352
     16          6           0        3.583801    0.958228    1.488949
     17          1           0        3.219965    1.955364    1.738432
     18          1           0        3.169120    0.213540    2.181864
     19          1           0        4.675063    0.924962    1.540348
     20          6           0        2.242453   -2.089004   -1.846684
     21          1           0        2.876536   -1.343343   -2.342835
     22          1           0        2.788419   -3.033268   -1.767717
     23          1           0        1.317554   -2.239154   -2.409269
     24          1           0       -2.639372    1.570635   -1.648043
     25          1           0       -2.472103   -0.187176   -1.770536
     26          6           0       -3.166054    0.542004    0.138965
     27          1           0       -3.272235    1.459619    0.720194
     28          6           0       -3.663882   -1.917379   -0.050684
     29          6           0       -3.751502   -0.567051    0.611699
     30          1           0       -4.585574   -2.146574   -0.604871
     31          1           0       -2.801648   -1.980282   -0.717615
     32          6           0       -4.569254   -0.525051    1.876433
     33          1           0       -4.615240    0.487020    2.292281
     34          1           0       -5.595899   -0.868211    1.691659
     35          1           0       -4.146174   -1.191508    2.639586
     36          1           0       -3.551257   -2.696486    0.712855
     37          1           0        2.483045   -2.710156    1.122178
     38          8           0        2.738796   -3.200025    1.903748
     39          1           0        2.401622   -2.680539    2.633597
 ---------------------------------------------------------------------
 Rotational constants (GHZ):           0.4397567           0.2527883           0.1983523
 Standard basis: 6-31G(d) (6D, 7F)
 There are   325 symmetry adapted cartesian basis functions of A   symmetry.
 There are   325 symmetry adapted basis functions of A   symmetry.
   325 basis functions,   612 primitive gaussians,   325 cartesian basis functions
    73 alpha electrons       72 beta electrons
       nuclear repulsion energy      1502.8607485367 Hartrees.
 NAtoms=   39 NActive=   39 NUniq=   39 SFac= 1.00D+00 NAtFMM=   60 NAOKFM=F Big=F
 Integral buffers will be    131072 words long.
 Raffenetti 2 integral format.
 Two-electron integral symmetry is turned on.
 One-electron integrals computed using PRISM.
 NBasis=   325 RedAO= T EigKep=  3.02D-04  NBF=   325
 NBsUse=   325 1.00D-06 EigRej= -1.00D+00 NBFU=   325
 ExpMin= 1.61D-01 ExpMax= 5.48D+03 ExpMxC= 8.25D+02 IAcc=3 IRadAn=         5 AccDes= 0.00D+00
 Harris functional with IExCor=  205 and IRadAn=       5 diagonalized for initial guess.
 HarFok:  IExCor=  205 AccDes= 0.00D+00 IRadAn=         5 IDoV= 1 UseB2=F ITyADJ=14
 ICtDFT=  3500011 ScaDFX=  1.000000  1.000000  1.000000  1.000000
 FoFCou: FMM=F IPFlag=           0 FMFlag=      100000 FMFlg1=           0
         NFxFlg=           0 DoJE=T BraDBF=F KetDBF=T FulRan=T
         wScrn=  0.000000 ICntrl=       500 IOpCl=  0 I1Cent=   200000004 NGrid=           0
         NMat0=    1 NMatS0=      1 NMatT0=    0 NMatD0=    1 NMtDS0=    0 NMtDT0=    0
 Petite list used in FoFCou.
 Initial guess <Sx>= 0.0000 <Sy>= 0.0000 <Sz>= 0.5000 <S**2>= 0.7500 S= 0.5000
 Requested convergence on RMS density matrix=1.00D-08 within 128 cycles.
 Requested convergence on MAX density matrix=1.00D-06.
 Requested convergence on             energy=1.00D-06.
 No special actions if energy rises.
 Integral accuracy reduced to 1.0D-05 until final iterations.
 Initial convergence to 1.0D-05 achieved.  Increase integral accuracy.
 Restarting incremental Fock formation.
 SCF Done:  E(UHF) =  -916.057259770     A.U. after   44 cycles
            NFock= 44  Conv=0.48D-08     -V/T= 2.0020
 <Sx>= 0.0000 <Sy>= 0.0000 <Sz>= 0.5000 <S**2>= 0.9003 S= 0.5725
 <L.S>=  0.00000000000    
 Annihilation of the first spin contaminant:
 S**2 before annihilation     0.9003,   after     0.7655

 **********************************************************************

            Population analysis using the SCF Density.

 **********************************************************************

 Orbital symmetries:
 Alpha Orbitals:
       Occupied  (A) (A) (A) (A) (A) (A) (A) (A) (A) (A) (A) (A)
                 (A) (A) (A) (A) (A) (A) (A) (A) (A) (A) (A) (A)
                 (A) (A) (A) (A) (A) (A) (A) (A) (A) (A) (A) (A)
                 (A) (A) (A) (A) (A) (A) (A) (A) (A) (A) (A) (A)
                 (A) (A) (A) (A) (A) (A) (A) (A) (A) (A) (A) (A)
                 (A) (A) (A) (A) (A) (A) (A) (A) (A) (A) (A) (A)
                 (A)
       Virtual   (A) (A) (A) (A) (A) (A) (A) (A) (A) (A) (A) (A)
                 (A) (A) (A) (A) (A) (A) (A) (A) (A) (A) (A) (A)
                 (A) (A) (A) (A) (A) (A) (A) (A) (A) (A) (A) (A)
                 (A) (A) (A) (A) (A) (A) (A) (A) (A) (A) (A) (A)
                 (A) (A) (A) (A) (A) (A) (A) (A) (A) (A) (A) (A)
                 (A) (A) (A) (A) (A) (A) (A) (A) (A) (A) (A) (A)
                 (A) (A) (A) (A) (A) (A) (A) (A) (A) (A) (A) (A)
                 (A) (A) (A) (A) (A) (A) (A) (A) (A) (A) (A) (A)
                 (A) (A) (A) (A) (A) (A) (A) (A) (A) (A) (A) (A)
                 (A) (A) (A) (A) (A) (A) (A) (A) (A) (A) (A) (A)
                 (A) (A) (A) (A) (A) (A) (A) (A) (A) (A) (A) (A)
                 (A) (A) (A) (A) (A) (A) (A) (A) (A) (A) (A) (A)
                 (A) (A) (A) (A) (A) (A) (A) (A) (A) (A) (A) (A)
                 (A) (A) (A) (A) (A) (A) (A) (A) (A) (A) (A) (A)
                 (A) (A) (A) (A) (A) (A) (A) (A) (A) (A) (A) (A)
                 (A) (A) (A) (A) (A) (A) (A) (A) (A) (A) (A) (A)
                 (A) (A) (A) (A) (A) (A) (A) (A) (A) (A) (A) (A)
                 (A) (A) (A) (A) (A) (A) (A) (A) (A) (A) (A) (A)
                 (A) (A) (A) (A) (A) (A) (A) (A) (A) (A) (A) (A)
                 (A) (A) (A) (A) (A) (A) (A) (A) (A) (A) (A) (A)
                 (A) (A) (A) (A) (A) (A) (A) (A) (A) (A) (A) (A)
 Beta  Orbitals:
       Occupied  (A) (A) (A) (A) (A) (A) (A) (A) (A) (A) (A) (A)
                 (A) (A) (A) (A) (A) (A) (A) (A) (A) (A) (A) (A)
                 (A) (A) (A) (A) (A) (A) (A) (A) (A) (A) (A) (A)
                 (A) (A) (A) (A) (A) (A) (A) (A) (A) (A) (A) (A)
                 (A) (A) (A) (A) (A) (A) (A) (A) (A) (A) (A) (A)
                 (A) (A) (A) (A) (A) (A) (A) (A) (A) (A) (A) (A)
       Virtual   (A) (A) (A) (A) (A) (A) (A) (A) (A) (A) (A) (A)
                 (A) (A) (A) (A) (A) (A) (A) (A) (A) (A) (A) (A)
                 (A) (A) (A) (A) (A) (A) (A) (A) (A) (A) (A) (A)
                 (A) (A) (A) (A) (A) (A) (A) (A) (A) (A) (A) (A)
                 (A) (A) (A) (A) (A) (A) (A) (A) (A) (A) (A) (A)
                 (A) (A) (A) (A) (A) (A) (A) (A) (A) (A) (A) (A)
                 (A) (A) (A) (A) (A) (A) (A) (A) (A) (A) (A) (A)
                 (A) (A) (A) (A) (A) (A) (A) (A) (A) (A) (A) (A)
                 (A) (A) (A) (A) (A) (A) (A) (A) (A) (A) (A) (A)
                 (A) (A) (A) (A) (A) (A) (A) (A) (A) (A) (A) (A)
                 (A) (A) (A) (A) (A) (A) (A) (A) (A) (A) (A) (A)
                 (A) (A) (A) (A) (A) (A) (A) (A) (A) (A) (A) (A)
                 (A) (A) (A) (A) (A) (A) (A) (A) (A) (A) (A) (A)
                 (A) (A) (A) (A) (A) (A) (A) (A) (A) (A) (A) (A)
                 (A) (A) (A) (A) (A) (A) (A) (A) (A) (A) (A) (A)
                 (A) (A) (A) (A) (A) (A) (A) (A) (A) (A) (A) (A)
                 (A) (A) (A) (A) (A) (A) (A) (A) (A) (A) (A) (A)
                 (A) (A) (A) (A) (A) (A) (A) (A) (A) (A) (A) (A)
                 (A) (A) (A) (A) (A) (A) (A) (A) (A) (A) (A) (A)
                 (A) (A) (A) (A) (A) (A) (A) (A) (A) (A) (A) (A)
                 (A) (A) (A) (A) (A) (A) (A) (A) (A) (A) (A) (A)
                 (A)
 The electronic state is 2-A.
 Alpha  occ. eigenvalues --  -20.45213 -20.44911 -20.42633 -20.40522 -20.36079
 Alpha  occ. eigenvalues --  -11.15825 -11.15556 -11.15287 -11.15186 -11.14121
 Alpha  occ. eigenvalues --  -11.14024 -11.12409 -11.11875 -11.10808 -11.10439
 Alpha  occ. eigenvalues --  -11.09948 -11.09866 -11.09679 -11.09324  -1.27434
 Alpha  occ. eigenvalues --   -1.25302  -1.22307  -1.21044  -1.17382  -0.99846
 Alpha  occ. eigenvalues --   -0.97600  -0.91602  -0.88399  -0.83367  -0.82639
 Alpha  occ. eigenvalues --   -0.82080  -0.79380  -0.76389  -0.74386  -0.65008
 Alpha  occ. eigenvalues --   -0.64329  -0.59453  -0.58491  -0.57414  -0.54550
 Alpha  occ. eigenvalues --   -0.53522  -0.51884  -0.51678  -0.49768  -0.49343
 Alpha  occ. eigenvalues --   -0.49097  -0.48567  -0.48051  -0.46796  -0.45660
 Alpha  occ. eigenvalues --   -0.45086  -0.44347  -0.43432  -0.42845  -0.42598
 Alpha  occ. eigenvalues --   -0.41385  -0.40750  -0.40425  -0.39868  -0.39361
 Alpha  occ. eigenvalues --   -0.38706  -0.37892  -0.36866  -0.36810  -0.35049
 Alpha  occ. eigenvalues --   -0.33833  -0.32345  -0.28039  -0.27526  -0.25314
 Alpha  occ. eigenvalues --   -0.21884  -0.19158  -0.10668
 Alpha virt. eigenvalues --    0.27074   0.30167   0.31671   0.32752   0.33595
 Alpha virt. eigenvalues --    0.35464   0.37953   0.38761   0.39647   0.40040
 Alpha virt. eigenvalues --    0.40893   0.41315   0.42234   0.42695   0.43532
 Alpha virt. eigenvalues --    0.44179   0.44733   0.45321   0.46015   0.46235
 Alpha virt. eigenvalues --    0.46818   0.47537   0.50210   0.50690   0.50997
 Alpha virt. eigenvalues --    0.52912   0.53784   0.54591   0.55888   0.57392
 Alpha virt. eigenvalues --    0.58768   0.62402   0.64229   0.64634   0.67646
 Alpha virt. eigenvalues --    0.69113   0.72037   0.74138   0.74989   0.76280
 Alpha virt. eigenvalues --    0.80098   0.82439   0.83023   0.84444   0.86163
 Alpha virt. eigenvalues --    0.86773   0.87919   0.88258   0.88785   0.89400
 Alpha virt. eigenvalues --    0.89962   0.91118   0.91252   0.92302   0.93917
 Alpha virt. eigenvalues --    0.95435   0.95886   0.97307   0.98260   0.99038
 Alpha virt. eigenvalues --    1.02241   1.02833   1.05031   1.06071   1.07041
 Alpha virt. eigenvalues --    1.07442   1.08166   1.09680   1.10113   1.11354
 Alpha virt. eigenvalues --    1.11883   1.13184   1.13716   1.15306   1.15546
 Alpha virt. eigenvalues --    1.16755   1.18176   1.19393   1.20817   1.22673
 Alpha virt. eigenvalues --    1.23402   1.23683   1.24404   1.24835   1.25355
 Alpha virt. eigenvalues --    1.26051   1.26980   1.27195   1.27782   1.27827
 Alpha virt. eigenvalues --    1.28686   1.29626   1.30292   1.30935   1.31226
 Alpha virt. eigenvalues --    1.32107   1.32751   1.34075   1.34953   1.35067
 Alpha virt. eigenvalues --    1.36504   1.38351   1.39083   1.39637   1.41176
 Alpha virt. eigenvalues --    1.41711   1.42453   1.46274   1.47795   1.48793
 Alpha virt. eigenvalues --    1.50854   1.51077   1.51723   1.52874   1.54527
 Alpha virt. eigenvalues --    1.56650   1.57667   1.58402   1.59804   1.61534
 Alpha virt. eigenvalues --    1.62590   1.64202   1.65446   1.66263   1.70410
 Alpha virt. eigenvalues --    1.71717   1.74268   1.76115   1.78705   1.79100
 Alpha virt. eigenvalues --    1.79546   1.81465   1.83231   1.84424   1.84769
 Alpha virt. eigenvalues --    1.86297   1.88150   1.88983   1.91980   1.92761
 Alpha virt. eigenvalues --    1.96876   1.99729   2.03371   2.05984   2.07988
 Alpha virt. eigenvalues --    2.11133   2.13826   2.14486   2.14948   2.16163
 Alpha virt. eigenvalues --    2.17382   2.18719   2.19558   2.19954   2.20264
 Alpha virt. eigenvalues --    2.22863   2.23731   2.26186   2.26992   2.28031
 Alpha virt. eigenvalues --    2.28214   2.30705   2.31894   2.33036   2.33315
 Alpha virt. eigenvalues --    2.34800   2.36723   2.38192   2.39319   2.41376
 Alpha virt. eigenvalues --    2.41724   2.44634   2.46301   2.47402   2.49847
 Alpha virt. eigenvalues --    2.50428   2.52290   2.52986   2.54613   2.55295
 Alpha virt. eigenvalues --    2.56054   2.58446   2.60085   2.60348   2.62498
 Alpha virt. eigenvalues --    2.65184   2.66480   2.68356   2.68430   2.69834
 Alpha virt. eigenvalues --    2.70788   2.73050   2.73717   2.73789   2.78423
 Alpha virt. eigenvalues --    2.80368   2.81992   2.82252   2.83157   2.85077
 Alpha virt. eigenvalues --    2.85606   2.86812   2.87628   2.90063   2.92879
 Alpha virt. eigenvalues --    2.94205   2.94432   2.97067   3.00192   3.02233
 Alpha virt. eigenvalues --    3.04837   3.07459   3.09020   3.10733   3.12553
 Alpha virt. eigenvalues --    3.13128   3.16841   3.17194   3.23845   3.25971
 Alpha virt. eigenvalues --    3.30455   3.31340   3.37550   3.41528   3.46086
 Alpha virt. eigenvalues --    3.46326   3.51738   3.53856   3.55878   3.57669
 Alpha virt. eigenvalues --    3.61450   3.85991   3.93143   4.24500   4.41860
 Alpha virt. eigenvalues --    4.55017   4.62164   4.67470   4.73531   4.76289
 Alpha virt. eigenvalues --    4.77425   4.81130   4.82494   4.83839   4.90845
 Alpha virt. eigenvalues --    4.92936   4.99837   5.05574   5.12470   5.22458
 Alpha virt. eigenvalues --    5.36280   5.82439
  Beta  occ. eigenvalues --  -20.45209 -20.44893 -20.42633 -20.38609 -20.34614
  Beta  occ. eigenvalues --  -11.16117 -11.15528 -11.15220 -11.14683 -11.14473
  Beta  occ. eigenvalues --  -11.13715 -11.12398 -11.11972 -11.10733 -11.09968
  Beta  occ. eigenvalues --  -11.09932 -11.09869 -11.09668 -11.09639  -1.27309
  Beta  occ. eigenvalues --   -1.24958  -1.21043  -1.18376  -1.14193  -0.99405
  Beta  occ. eigenvalues --   -0.96948  -0.91371  -0.87782  -0.82967  -0.82401
  Beta  occ. eigenvalues --   -0.82067  -0.79003  -0.75232  -0.73744  -0.64439
  Beta  occ. eigenvalues --   -0.63664  -0.59424  -0.58458  -0.57341  -0.54193
  Beta  occ. eigenvalues --   -0.53253  -0.51549  -0.51337  -0.49560  -0.49152
  Beta  occ. eigenvalues --   -0.49031  -0.48268  -0.47886  -0.45924  -0.44672
  Beta  occ. eigenvalues --   -0.44318  -0.44005  -0.42981  -0.42478  -0.41461
  Beta  occ. eigenvalues --   -0.40493  -0.39909  -0.39654  -0.38718  -0.38308
  Beta  occ. eigenvalues --   -0.36903  -0.36820  -0.35894  -0.35054  -0.33176
  Beta  occ. eigenvalues --   -0.31911  -0.29862  -0.26052  -0.24167  -0.21899
  Beta  occ. eigenvalues --   -0.18675  -0.17288
  Beta virt. eigenvalues --    0.20657   0.29343   0.31513   0.32507   0.33783
  Beta virt. eigenvalues --    0.35376   0.37418   0.38318   0.39375   0.40115
  Beta virt. eigenvalues --    0.40264   0.41034   0.41507   0.42266   0.42930
  Beta virt. eigenvalues --    0.43514   0.44273   0.44844   0.45423   0.46095
  Beta virt. eigenvalues --    0.46451   0.47010   0.47948   0.50630   0.50852
  Beta virt. eigenvalues --    0.51481   0.53412   0.53977   0.54688   0.56142
  Beta virt. eigenvalues --    0.57978   0.59231   0.63090   0.64454   0.64992
  Beta virt. eigenvalues --    0.68283   0.69287   0.72153   0.74276   0.75286
  Beta virt. eigenvalues --    0.76799   0.80294   0.82682   0.83191   0.84964
  Beta virt. eigenvalues --    0.86207   0.86871   0.88060   0.88543   0.89133
  Beta virt. eigenvalues --    0.89556   0.90109   0.91225   0.91390   0.92404
  Beta virt. eigenvalues --    0.94236   0.95712   0.95861   0.97449   0.98354
  Beta virt. eigenvalues --    0.98968   1.02675   1.03120   1.05364   1.06180
  Beta virt. eigenvalues --    1.07178   1.07606   1.08411   1.09879   1.10198
  Beta virt. eigenvalues --    1.11780   1.12100   1.13332   1.14229   1.15363
  Beta virt. eigenvalues --    1.15988   1.17278   1.18260   1.19526   1.21152
  Beta virt. eigenvalues --    1.22762   1.23620   1.23792   1.24515   1.24976
  Beta virt. eigenvalues --    1.25461   1.26178   1.27161   1.27266   1.27875
  Beta virt. eigenvalues --    1.27963   1.28846   1.29846   1.30442   1.30993
  Beta virt. eigenvalues --    1.31278   1.32245   1.33218   1.34183   1.35015
  Beta virt. eigenvalues --    1.35188   1.36730   1.38581   1.39340   1.39841
  Beta virt. eigenvalues --    1.41311   1.41964   1.43281   1.46869   1.49010
  Beta virt. eigenvalues --    1.50818   1.51379   1.52830   1.52932   1.53359
  Beta virt. eigenvalues --    1.55615   1.57117   1.58127   1.59303   1.60622
  Beta virt. eigenvalues --    1.61927   1.63237   1.65071   1.66364   1.66555
  Beta virt. eigenvalues --    1.70688   1.71811   1.74303   1.76287   1.79208
  Beta virt. eigenvalues --    1.79987   1.80888   1.81688   1.83405   1.84596
  Beta virt. eigenvalues --    1.84989   1.86403   1.88837   1.89283   1.92089
  Beta virt. eigenvalues --    1.92848   1.96961   2.00007   2.03684   2.06389
  Beta virt. eigenvalues --    2.08286   2.11509   2.14054   2.14706   2.15221
  Beta virt. eigenvalues --    2.16164   2.17986   2.19071   2.19567   2.20592
  Beta virt. eigenvalues --    2.20643   2.23384   2.24519   2.26575   2.27208
  Beta virt. eigenvalues --    2.28581   2.29308   2.30929   2.32700   2.33418
  Beta virt. eigenvalues --    2.34573   2.35535   2.37331   2.38662   2.39926
  Beta virt. eigenvalues --    2.41478   2.42222   2.45182   2.46732   2.47527
  Beta virt. eigenvalues --    2.50468   2.51071   2.52542   2.53234   2.55027
  Beta virt. eigenvalues --    2.55693   2.56817   2.58627   2.60201   2.60615
  Beta virt. eigenvalues --    2.62680   2.65576   2.66877   2.68369   2.68761
  Beta virt. eigenvalues --    2.70044   2.71042   2.73154   2.73950   2.74452
  Beta virt. eigenvalues --    2.78606   2.80554   2.82035   2.82336   2.83338
  Beta virt. eigenvalues --    2.85171   2.85884   2.86867   2.87809   2.90187
  Beta virt. eigenvalues --    2.93120   2.94269   2.94651   2.97357   3.00770
  Beta virt. eigenvalues --    3.02542   3.05123   3.08631   3.09477   3.10850
  Beta virt. eigenvalues --    3.13053   3.13464   3.17023   3.17513   3.24096
  Beta virt. eigenvalues --    3.26298   3.30726   3.31788   3.37573   3.41936
  Beta virt. eigenvalues --    3.46309   3.46504   3.51957   3.54243   3.56148
  Beta virt. eigenvalues --    3.57991   3.61816   3.86085   3.93223   4.24518
  Beta virt. eigenvalues --    4.42302   4.55551   4.62417   4.67526   4.73915
  Beta virt. eigenvalues --    4.76487   4.77386   4.81201   4.82545   4.83850
  Beta virt. eigenvalues --    4.90927   4.93110   4.99857   5.05939   5.12470
  Beta virt. eigenvalues --    5.22600   5.36766   5.82733
          Condensed to atoms (all electrons):
               1          2          3          4          5          6
     1  C    5.124953   0.311417   0.455496  -0.068860  -0.092136   0.003248
     2  C    0.311417   5.142509  -0.031655  -0.012804   0.004661  -0.000038
     3  C    0.455496  -0.031655   4.447633   0.452230   0.393819  -0.049643
     4  O   -0.068860  -0.012804   0.452230   8.334147  -0.072321  -0.000095
     5  C   -0.092136   0.004661   0.393819  -0.072321   4.949647   0.232236
     6  O    0.003248  -0.000038  -0.049643  -0.000095   0.232236   8.438024
     7  C   -0.009530  -0.000446  -0.043309   0.004260   0.470802  -0.062164
     8  O   -0.000044   0.000001   0.002066  -0.000010  -0.056219  -0.002625
     9  C   -0.032542   0.002119  -0.012699  -0.000055  -0.038124   0.001775
    10  O    0.003762  -0.000038  -0.000123  -0.000000   0.004006  -0.000008
    11  C    0.535597  -0.045382  -0.033646   0.003890  -0.010886  -0.000137
    12  C   -0.045980  -0.014985   0.002293  -0.000047  -0.000371   0.000001
    13  H   -0.039331   0.385671  -0.000953   0.000327  -0.000106   0.000000
    14  H   -0.042519   0.391469  -0.003192   0.015419   0.000755  -0.000006
    15  H   -0.043779   0.389122   0.000816   0.000291   0.000008   0.000000
    16  C   -0.000404  -0.000002  -0.004659  -0.010212  -0.045203   0.214719
    17  H   -0.000182   0.000013   0.000201   0.010314  -0.006395  -0.033961
    18  H    0.000101  -0.000001   0.000265   0.000320  -0.001139  -0.041212
    19  H    0.000006  -0.000000  -0.000076   0.000228   0.004659  -0.036106
    20  C    0.000042  -0.000000  -0.000125   0.000001  -0.005702   0.000611
    21  H   -0.000025   0.000000  -0.000128   0.000000   0.002252   0.000574
    22  H   -0.000000   0.000000   0.000002  -0.000000  -0.000066  -0.000016
    23  H   -0.000015   0.000000   0.000045  -0.000000   0.000055   0.000012
    24  H   -0.000177  -0.002214   0.000202  -0.000000  -0.000025  -0.000000
    25  H    0.002095   0.000092   0.000001   0.000000  -0.000048   0.000000
    26  C   -0.001259  -0.000584   0.000076   0.000001  -0.000028  -0.000000
    27  H   -0.000106  -0.000703  -0.000018   0.000000  -0.000000   0.000000
    28  C   -0.000006  -0.000001  -0.000001  -0.000000   0.000003  -0.000000
    29  C    0.000195   0.000020   0.000009   0.000000  -0.000005  -0.000000
    30  H    0.000000  -0.000000   0.000000   0.000000  -0.000000   0.000000
    31  H   -0.000012  -0.000001   0.000001  -0.000000  -0.000005   0.000000
    32  C   -0.000000   0.000001  -0.000000   0.000000   0.000000  -0.000000
    33  H    0.000001  -0.000002   0.000000   0.000000  -0.000000   0.000000
    34  H    0.000000  -0.000000   0.000000   0.000000  -0.000000  -0.000000
    35  H    0.000001   0.000000  -0.000000  -0.000000  -0.000000   0.000000
    36  H    0.000000   0.000000  -0.000000  -0.000000   0.000000   0.000000
    37  H    0.000001  -0.000000   0.000005   0.000000  -0.000272   0.000396
    38  O    0.000000   0.000000  -0.000002  -0.000000  -0.000067  -0.000014
    39  H    0.000000  -0.000000  -0.000001   0.000000   0.000003  -0.000019
               7          8          9         10         11         12
     1  C   -0.009530  -0.000044  -0.032542   0.003762   0.535597  -0.045980
     2  C   -0.000446   0.000001   0.002119  -0.000038  -0.045382  -0.014985
     3  C   -0.043309   0.002066  -0.012699  -0.000123  -0.033646   0.002293
     4  O    0.004260  -0.000010  -0.000055  -0.000000   0.003890  -0.000047
     5  C    0.470802  -0.056219  -0.038124   0.004006  -0.010886  -0.000371
     6  O   -0.062164  -0.002625   0.001775  -0.000008  -0.000137   0.000001
     7  C    5.027260   0.185845   0.404102  -0.076815  -0.097521   0.004637
     8  O    0.185845   8.485594  -0.046158  -0.000698   0.003592  -0.000051
     9  C    0.404102  -0.046158   4.437743   0.444567   0.441709  -0.033378
    10  O   -0.076815  -0.000698   0.444567   8.432346  -0.077807  -0.008582
    11  C   -0.097521   0.003592   0.441709  -0.077807   5.210360   0.300259
    12  C    0.004637  -0.000051  -0.033378  -0.008582   0.300259   5.133358
    13  H    0.000024  -0.000000  -0.000023   0.000000  -0.001680   0.000192
    14  H   -0.000027   0.000000  -0.000024   0.000000   0.002161   0.000180
    15  H   -0.000011  -0.000000   0.000090  -0.000000  -0.001152  -0.002053
    16  C   -0.002773   0.000309  -0.000048   0.000001   0.000030  -0.000000
    17  H   -0.000319   0.000007   0.000013  -0.000000  -0.000006   0.000000
    18  H    0.002946   0.000047  -0.000072   0.000000  -0.000014   0.000000
    19  H   -0.000016  -0.000011   0.000003  -0.000000  -0.000001   0.000000
    20  C   -0.046197   0.207872  -0.005277  -0.006898  -0.000469   0.000002
    21  H   -0.002896  -0.038291   0.000561   0.000246   0.000150  -0.000001
    22  H    0.005703  -0.035852  -0.000068   0.000124   0.000006  -0.000000
    23  H   -0.007429  -0.033268  -0.000020   0.012212  -0.000200   0.000003
    24  H    0.000064   0.000000   0.001959   0.000330  -0.055351   0.406265
    25  H    0.000621  -0.000003  -0.003635   0.012276  -0.040959   0.399496
    26  C   -0.000041   0.000001  -0.004210  -0.000247  -0.065522   0.335754
    27  H    0.000004  -0.000000   0.000138  -0.000022   0.000474  -0.040829
    28  C   -0.000084   0.000000  -0.000041  -0.013225   0.001164  -0.007083
    29  C   -0.000006   0.000000   0.000870   0.000717  -0.003929  -0.040488
    30  H    0.000000   0.000000   0.000035   0.000204  -0.000105   0.000486
    31  H    0.000220  -0.000004  -0.001145   0.024082  -0.001489  -0.001824
    32  C   -0.000001   0.000000  -0.000019   0.000002  -0.000183   0.003704
    33  H    0.000000   0.000000  -0.000000   0.000000  -0.000007   0.000096
    34  H   -0.000000   0.000000   0.000000  -0.000000  -0.000009  -0.000103
    35  H    0.000000  -0.000000   0.000002  -0.000000   0.000041  -0.000085
    36  H    0.000001  -0.000000  -0.000029   0.000038   0.000059   0.000230
    37  H   -0.001285   0.028019   0.000098  -0.000006  -0.000008   0.000000
    38  O    0.001210  -0.008339  -0.000001   0.000000  -0.000000  -0.000000
    39  H    0.000150   0.000191   0.000004  -0.000000  -0.000000   0.000000
              13         14         15         16         17         18
     1  C   -0.039331  -0.042519  -0.043779  -0.000404  -0.000182   0.000101
     2  C    0.385671   0.391469   0.389122  -0.000002   0.000013  -0.000001
     3  C   -0.000953  -0.003192   0.000816  -0.004659   0.000201   0.000265
     4  O    0.000327   0.015419   0.000291  -0.010212   0.010314   0.000320
     5  C   -0.000106   0.000755   0.000008  -0.045203  -0.006395  -0.001139
     6  O    0.000000  -0.000006   0.000000   0.214719  -0.033961  -0.041212
     7  C    0.000024  -0.000027  -0.000011  -0.002773  -0.000319   0.002946
     8  O   -0.000000   0.000000  -0.000000   0.000309   0.000007   0.000047
     9  C   -0.000023  -0.000024   0.000090  -0.000048   0.000013  -0.000072
    10  O    0.000000   0.000000  -0.000000   0.000001  -0.000000   0.000000
    11  C   -0.001680   0.002161  -0.001152   0.000030  -0.000006  -0.000014
    12  C    0.000192   0.000180  -0.002053  -0.000000   0.000000   0.000000
    13  H    0.571526  -0.025163  -0.036306  -0.000000   0.000001   0.000000
    14  H   -0.025163   0.476268  -0.022818   0.000003  -0.000001  -0.000000
    15  H   -0.036306  -0.022818   0.570898   0.000000  -0.000000  -0.000000
    16  C   -0.000000   0.000003   0.000000   4.850340   0.389837   0.377098
    17  H    0.000001  -0.000001  -0.000000   0.389837   0.509187  -0.039534
    18  H    0.000000  -0.000000  -0.000000   0.377098  -0.039534   0.609885
    19  H    0.000000  -0.000000   0.000000   0.393234  -0.027993  -0.034025
    20  C    0.000000  -0.000000  -0.000000  -0.000124   0.000000   0.000027
    21  H   -0.000000  -0.000000   0.000000   0.000013   0.000001  -0.000004
    22  H   -0.000000   0.000000   0.000000   0.000003  -0.000000  -0.000001
    23  H   -0.000000   0.000000  -0.000000  -0.000000   0.000000   0.000000
    24  H   -0.000732   0.000048   0.002135   0.000000   0.000000  -0.000000
    25  H   -0.000030   0.000004   0.000050  -0.000000  -0.000000  -0.000000
    26  C   -0.000006  -0.000005  -0.000226  -0.000000  -0.000000   0.000000
    27  H    0.000872   0.000022   0.000060  -0.000000   0.000000   0.000000
    28  C    0.000000   0.000000   0.000000   0.000000  -0.000000   0.000000
    29  C    0.000044  -0.000000   0.000003  -0.000000  -0.000000   0.000000
    30  H    0.000000  -0.000000  -0.000000   0.000000   0.000000  -0.000000
    31  H   -0.000000   0.000000  -0.000000   0.000000   0.000000  -0.000000
    32  C    0.000001  -0.000000  -0.000000   0.000000  -0.000000   0.000000
    33  H    0.000002   0.000000  -0.000000   0.000000  -0.000000  -0.000000
    34  H    0.000000   0.000000   0.000000  -0.000000  -0.000000   0.000000
    35  H   -0.000001   0.000000   0.000000   0.000000   0.000000  -0.000000
    36  H   -0.000000  -0.000000   0.000000   0.000000   0.000000  -0.000000
    37  H   -0.000000   0.000000   0.000000   0.000050   0.000005  -0.000159
    38  O    0.000000  -0.000000  -0.000000  -0.000196   0.000002   0.001007
    39  H    0.000000  -0.000000  -0.000000  -0.000022  -0.000002   0.000642
              19         20         21         22         23         24
     1  C    0.000006   0.000042  -0.000025  -0.000000  -0.000015  -0.000177
     2  C   -0.000000  -0.000000   0.000000   0.000000   0.000000  -0.002214
     3  C   -0.000076  -0.000125  -0.000128   0.000002   0.000045   0.000202
     4  O    0.000228   0.000001   0.000000  -0.000000  -0.000000  -0.000000
     5  C    0.004659  -0.005702   0.002252  -0.000066   0.000055  -0.000025
     6  O   -0.036106   0.000611   0.000574  -0.000016   0.000012  -0.000000
     7  C   -0.000016  -0.046197  -0.002896   0.005703  -0.007429   0.000064
     8  O   -0.000011   0.207872  -0.038291  -0.035852  -0.033268   0.000000
     9  C    0.000003  -0.005277   0.000561  -0.000068  -0.000020   0.001959
    10  O   -0.000000  -0.006898   0.000246   0.000124   0.012212   0.000330
    11  C   -0.000001  -0.000469   0.000150   0.000006  -0.000200  -0.055351
    12  C    0.000000   0.000002  -0.000001  -0.000000   0.000003   0.406265
    13  H    0.000000   0.000000  -0.000000  -0.000000  -0.000000  -0.000732
    14  H   -0.000000  -0.000000  -0.000000   0.000000   0.000000   0.000048
    15  H    0.000000  -0.000000   0.000000   0.000000  -0.000000   0.002135
    16  C    0.393234  -0.000124   0.000013   0.000003  -0.000000   0.000000
    17  H   -0.027993   0.000000   0.000001  -0.000000   0.000000   0.000000
    18  H   -0.034025   0.000027  -0.000004  -0.000001   0.000000  -0.000000
    19  H    0.558328   0.000002  -0.000002  -0.000000  -0.000000  -0.000000
    20  C    0.000002   4.853641   0.384229   0.390780   0.391075   0.000000
    21  H   -0.000002   0.384229   0.584048  -0.032743  -0.038662   0.000000
    22  H   -0.000000   0.390780  -0.032743   0.557715  -0.027959   0.000000
    23  H   -0.000000   0.391075  -0.038662  -0.027959   0.505701  -0.000000
    24  H   -0.000000   0.000000   0.000000   0.000000  -0.000000   0.573942
    25  H   -0.000000  -0.000001  -0.000000   0.000000   0.000014  -0.024013
    26  C    0.000000   0.000000  -0.000000   0.000000  -0.000000  -0.047197
    27  H   -0.000000   0.000000  -0.000000  -0.000000   0.000000  -0.002840
    28  C   -0.000000  -0.000000   0.000000   0.000000   0.000002   0.000075
    29  C    0.000000  -0.000000   0.000000   0.000000  -0.000000   0.001472
    30  H    0.000000   0.000000  -0.000000  -0.000000  -0.000000   0.000049
    31  H    0.000000   0.000002  -0.000000  -0.000000  -0.000003   0.000073
    32  C    0.000000  -0.000000   0.000000   0.000000  -0.000000  -0.000107
    33  H    0.000000  -0.000000  -0.000000  -0.000000  -0.000000  -0.000012
    34  H    0.000000  -0.000000   0.000000   0.000000  -0.000000   0.000011
    35  H   -0.000000   0.000000  -0.000000  -0.000000   0.000000  -0.000002
    36  H   -0.000000  -0.000000  -0.000000  -0.000000   0.000000  -0.000009
    37  H   -0.000002  -0.002063   0.000186  -0.000835   0.000138  -0.000000
    38  O   -0.000001   0.000323  -0.000014   0.000280  -0.000010   0.000000
    39  H   -0.000001   0.000004  -0.000000  -0.000007  -0.000000  -0.000000
              25         26         27         28         29         30
     1  C    0.002095  -0.001259  -0.000106  -0.000006   0.000195   0.000000
     2  C    0.000092  -0.000584  -0.000703  -0.000001   0.000020  -0.000000
     3  C    0.000001   0.000076  -0.000018  -0.000001   0.000009   0.000000
     4  O    0.000000   0.000001   0.000000  -0.000000   0.000000   0.000000
     5  C   -0.000048  -0.000028  -0.000000   0.000003  -0.000005  -0.000000
     6  O    0.000000  -0.000000   0.000000  -0.000000  -0.000000   0.000000
     7  C    0.000621  -0.000041   0.000004  -0.000084  -0.000006   0.000000
     8  O   -0.000003   0.000001  -0.000000   0.000000   0.000000   0.000000
     9  C   -0.003635  -0.004210   0.000138  -0.000041   0.000870   0.000035
    10  O    0.012276  -0.000247  -0.000022  -0.013225   0.000717   0.000204
    11  C   -0.040959  -0.065522   0.000474   0.001164  -0.003929  -0.000105
    12  C    0.399496   0.335754  -0.040829  -0.007083  -0.040488   0.000486
    13  H   -0.000030  -0.000006   0.000872   0.000000   0.000044   0.000000
    14  H    0.000004  -0.000005   0.000022   0.000000  -0.000000  -0.000000
    15  H    0.000050  -0.000226   0.000060   0.000000   0.000003  -0.000000
    16  C   -0.000000  -0.000000  -0.000000   0.000000  -0.000000   0.000000
    17  H   -0.000000  -0.000000   0.000000  -0.000000  -0.000000   0.000000
    18  H   -0.000000   0.000000   0.000000   0.000000   0.000000  -0.000000
    19  H   -0.000000   0.000000  -0.000000  -0.000000   0.000000   0.000000
    20  C   -0.000001   0.000000   0.000000  -0.000000  -0.000000   0.000000
    21  H   -0.000000  -0.000000  -0.000000   0.000000   0.000000  -0.000000
    22  H    0.000000   0.000000  -0.000000   0.000000   0.000000  -0.000000
    23  H    0.000014  -0.000000   0.000000   0.000002  -0.000000  -0.000000
    24  H   -0.024013  -0.047197  -0.002840   0.000075   0.001472   0.000049
    25  H    0.476755  -0.037996   0.002748  -0.000100  -0.000821  -0.000204
    26  C   -0.037996   5.007710   0.391169  -0.041579   0.711093  -0.003271
    27  H    0.002748   0.391169   0.541338   0.003787  -0.044217  -0.000143
    28  C   -0.000100  -0.041579   0.003787   5.191540   0.339546   0.373695
    29  C   -0.000821   0.711093  -0.044217   0.339546   4.850956  -0.043905
    30  H   -0.000204  -0.003271  -0.000143   0.373695  -0.043905   0.600741
    31  H   -0.000895  -0.001593  -0.000016   0.375240  -0.028885  -0.017466
    32  C    0.000076  -0.046405  -0.006986  -0.069027   0.353966   0.000352
    33  H    0.000007  -0.000417   0.003585   0.003923  -0.041251  -0.000134
    34  H    0.000001  -0.001360   0.000147   0.000437  -0.045296   0.002177
    35  H   -0.000002  -0.000780   0.000213  -0.001624  -0.041035  -0.000306
    36  H    0.000050   0.001371  -0.000116   0.391483  -0.045846  -0.038584
    37  H    0.000000  -0.000000  -0.000000  -0.000000  -0.000000   0.000000
    38  O   -0.000000  -0.000000  -0.000000  -0.000000   0.000000   0.000000
    39  H    0.000000   0.000000   0.000000   0.000000   0.000000  -0.000000
              31         32         33         34         35         36
     1  C   -0.000012  -0.000000   0.000001   0.000000   0.000001   0.000000
     2  C   -0.000001   0.000001  -0.000002  -0.000000   0.000000   0.000000
     3  C    0.000001  -0.000000   0.000000   0.000000  -0.000000  -0.000000
     4  O   -0.000000   0.000000   0.000000   0.000000  -0.000000  -0.000000
     5  C   -0.000005   0.000000  -0.000000  -0.000000  -0.000000   0.000000
     6  O    0.000000  -0.000000   0.000000  -0.000000   0.000000   0.000000
     7  C    0.000220  -0.000001   0.000000  -0.000000   0.000000   0.000001
     8  O   -0.000004   0.000000   0.000000   0.000000  -0.000000  -0.000000
     9  C   -0.001145  -0.000019  -0.000000   0.000000   0.000002  -0.000029
    10  O    0.024082   0.000002   0.000000  -0.000000  -0.000000   0.000038
    11  C   -0.001489  -0.000183  -0.000007  -0.000009   0.000041   0.000059
    12  C   -0.001824   0.003704   0.000096  -0.000103  -0.000085   0.000230
    13  H   -0.000000   0.000001   0.000002   0.000000  -0.000001  -0.000000
    14  H    0.000000  -0.000000   0.000000   0.000000   0.000000  -0.000000
    15  H   -0.000000  -0.000000  -0.000000   0.000000   0.000000   0.000000
    16  C    0.000000   0.000000   0.000000  -0.000000   0.000000   0.000000
    17  H    0.000000  -0.000000  -0.000000  -0.000000   0.000000   0.000000
    18  H   -0.000000   0.000000  -0.000000   0.000000  -0.000000  -0.000000
    19  H    0.000000   0.000000   0.000000   0.000000  -0.000000  -0.000000
    20  C    0.000002  -0.000000  -0.000000  -0.000000   0.000000  -0.000000
    21  H   -0.000000   0.000000  -0.000000   0.000000  -0.000000  -0.000000
    22  H   -0.000000   0.000000  -0.000000   0.000000  -0.000000  -0.000000
    23  H   -0.000003  -0.000000  -0.000000  -0.000000   0.000000   0.000000
    24  H    0.000073  -0.000107  -0.000012   0.000011  -0.000002  -0.000009
    25  H   -0.000895   0.000076   0.000007   0.000001  -0.000002   0.000050
    26  C   -0.001593  -0.046405  -0.000417  -0.001360  -0.000780   0.001371
    27  H   -0.000016  -0.006986   0.003585   0.000147   0.000213  -0.000116
    28  C    0.375240  -0.069027   0.003923   0.000437  -0.001624   0.391483
    29  C   -0.028885   0.353966  -0.041251  -0.045296  -0.041035  -0.045846
    30  H   -0.017466   0.000352  -0.000134   0.002177  -0.000306  -0.038584
    31  H    0.397639   0.002879  -0.000085  -0.000015  -0.000063  -0.020979
    32  C    0.002879   5.105682   0.389955   0.384968   0.383886  -0.003915
    33  H   -0.000085   0.389955   0.546492  -0.027648  -0.025848   0.000107
    34  H   -0.000015   0.384968  -0.027648   0.589134  -0.039874  -0.000778
    35  H   -0.000063   0.383886  -0.025848  -0.039874   0.571793   0.003178
    36  H   -0.020979  -0.003915   0.000107  -0.000778   0.003178   0.575514
    37  H    0.000000   0.000000   0.000000  -0.000000   0.000000   0.000000
    38  O    0.000000  -0.000000   0.000000   0.000000  -0.000000  -0.000000
    39  H   -0.000000   0.000000  -0.000000   0.000000  -0.000000  -0.000000
              37         38         39
     1  C    0.000001   0.000000   0.000000
     2  C   -0.000000   0.000000  -0.000000
     3  C    0.000005  -0.000002  -0.000001
     4  O    0.000000  -0.000000   0.000000
     5  C   -0.000272  -0.000067   0.000003
     6  O    0.000396  -0.000014  -0.000019
     7  C   -0.001285   0.001210   0.000150
     8  O    0.028019  -0.008339   0.000191
     9  C    0.000098  -0.000001   0.000004
    10  O   -0.000006   0.000000  -0.000000
    11  C   -0.000008  -0.000000  -0.000000
    12  C    0.000000  -0.000000   0.000000
    13  H   -0.000000   0.000000   0.000000
    14  H    0.000000  -0.000000  -0.000000
    15  H    0.000000  -0.000000  -0.000000
    16  C    0.000050  -0.000196  -0.000022
    17  H    0.000005   0.000002  -0.000002
    18  H   -0.000159   0.001007   0.000642
    19  H   -0.000002  -0.000001  -0.000001
    20  C   -0.002063   0.000323   0.000004
    21  H    0.000186  -0.000014  -0.000000
    22  H   -0.000835   0.000280  -0.000007
    23  H    0.000138  -0.000010  -0.000000
    24  H   -0.000000   0.000000  -0.000000
    25  H    0.000000  -0.000000   0.000000
    26  C   -0.000000  -0.000000   0.000000
    27  H   -0.000000  -0.000000   0.000000
    28  C   -0.000000  -0.000000   0.000000
    29  C   -0.000000   0.000000   0.000000
    30  H    0.000000   0.000000  -0.000000
    31  H    0.000000   0.000000  -0.000000
    32  C    0.000000  -0.000000   0.000000
    33  H    0.000000   0.000000  -0.000000
    34  H   -0.000000   0.000000   0.000000
    35  H    0.000000  -0.000000  -0.000000
    36  H    0.000000  -0.000000  -0.000000
    37  H    0.239302   0.254183  -0.017714
    38  O    0.254183   8.425550   0.264611
    39  H   -0.017714   0.264611   0.336887
          Atomic-Atomic Spin Densities.
               1          2          3          4          5          6
     1  C    0.368742  -0.005983   0.067930  -0.005844  -0.010189   0.000078
     2  C   -0.005983  -0.050053  -0.003882   0.000749  -0.000037  -0.000000
     3  C    0.067930  -0.003882  -0.126280  -0.117967   0.065444  -0.002278
     4  O   -0.005844   0.000749  -0.117967   0.550970  -0.005361   0.000633
     5  C   -0.010189  -0.000037   0.065444  -0.005361   0.359591  -0.023977
     6  O    0.000078  -0.000000  -0.002278   0.000633  -0.023977   0.008206
     7  C   -0.003580   0.000013  -0.004200   0.000402  -0.056298   0.004541
     8  O    0.000015  -0.000000  -0.000029  -0.000000   0.001612  -0.000229
     9  C   -0.007385  -0.000056  -0.002532   0.000046  -0.008797   0.000008
    10  O    0.000615   0.000000   0.000027  -0.000000   0.000510  -0.000000
    11  C   -0.076204   0.004565  -0.005955   0.000512  -0.003142   0.000003
    12  C    0.001701   0.000148  -0.000119   0.000001   0.000008  -0.000000
    13  H   -0.006772   0.003560  -0.000366   0.000160  -0.000012   0.000000
    14  H   -0.000596   0.003152   0.000738  -0.001997  -0.000028   0.000000
    15  H   -0.005173   0.003168  -0.000106   0.000044  -0.000009   0.000000
    16  C   -0.000005   0.000000  -0.000635  -0.000042  -0.005995   0.002842
    17  H   -0.000069  -0.000000  -0.001240  -0.000210  -0.001100   0.000180
    18  H    0.000003   0.000000   0.000434  -0.000085   0.001620  -0.000401
    19  H    0.000000  -0.000000  -0.000027  -0.000031   0.000542   0.000174
    20  C    0.000024   0.000000  -0.000033  -0.000000   0.001720  -0.000068
    21  H   -0.000007   0.000000   0.000001   0.000000  -0.000419   0.000051
    22  H   -0.000000  -0.000000  -0.000000   0.000000  -0.000026   0.000002
    23  H    0.000011  -0.000000   0.000006  -0.000000   0.000179  -0.000002
    24  H    0.000358  -0.000294   0.000015  -0.000000   0.000003  -0.000000
    25  H    0.000326  -0.000010  -0.000007  -0.000000   0.000019   0.000000
    26  C    0.000381   0.000034   0.000009  -0.000001   0.000015  -0.000000
    27  H   -0.000188   0.000022  -0.000011   0.000000  -0.000001   0.000000
    28  C   -0.000004  -0.000000  -0.000000   0.000000  -0.000000   0.000000
    29  C   -0.000001  -0.000001   0.000001  -0.000000   0.000001  -0.000000
    30  H    0.000000   0.000000   0.000000  -0.000000  -0.000000  -0.000000
    31  H    0.000007   0.000000   0.000000  -0.000000  -0.000000  -0.000000
    32  C    0.000004  -0.000000   0.000000  -0.000000   0.000000  -0.000000
    33  H    0.000000   0.000000   0.000000  -0.000000   0.000000  -0.000000
    34  H    0.000000  -0.000000   0.000000  -0.000000   0.000000  -0.000000
    35  H   -0.000000   0.000000  -0.000000   0.000000  -0.000000   0.000000
    36  H   -0.000000   0.000000  -0.000000   0.000000  -0.000000   0.000000
    37  H    0.000000  -0.000000   0.000000  -0.000000   0.000041  -0.000015
    38  O   -0.000000   0.000000  -0.000000   0.000000  -0.000007   0.000001
    39  H   -0.000000   0.000000   0.000000   0.000000   0.000001   0.000000
               7          8          9         10         11         12
     1  C   -0.003580   0.000015  -0.007385   0.000615  -0.076204   0.001701
     2  C    0.000013  -0.000000  -0.000056   0.000000   0.004565   0.000148
     3  C   -0.004200  -0.000029  -0.002532   0.000027  -0.005955  -0.000119
     4  O    0.000402  -0.000000   0.000046  -0.000000   0.000512   0.000001
     5  C   -0.056298   0.001612  -0.008797   0.000510  -0.003142   0.000008
     6  O    0.004541  -0.000229   0.000008  -0.000000   0.000003  -0.000000
     7  C   -0.256236   0.012845   0.078858  -0.001047   0.001128   0.000093
     8  O    0.012845   0.000232  -0.003745   0.000271  -0.000070   0.000001
     9  C    0.078858  -0.003745   0.210545  -0.135127   0.084680  -0.005168
    10  O   -0.001047   0.000271  -0.135127   0.434297  -0.001702  -0.000291
    11  C    0.001128  -0.000070   0.084680  -0.001702  -0.204273   0.009413
    12  C    0.000093   0.000001  -0.005168  -0.000291   0.009413   0.006064
    13  H    0.000008  -0.000000   0.000026  -0.000000   0.000823  -0.000072
    14  H    0.000002  -0.000000  -0.000004  -0.000000  -0.000072   0.000022
    15  H    0.000008  -0.000000   0.000012  -0.000001   0.000775  -0.000170
    16  C    0.001535  -0.000048  -0.000007  -0.000000   0.000013  -0.000000
    17  H    0.000077  -0.000001   0.000004  -0.000000   0.000005  -0.000000
    18  H   -0.000770   0.000050  -0.000004   0.000000  -0.000006   0.000000
    19  H   -0.000002   0.000000  -0.000001   0.000000   0.000000   0.000000
    20  C    0.008845  -0.002570  -0.000871  -0.000115  -0.000074  -0.000000
    21  H   -0.001499   0.000477   0.000224  -0.000019   0.000013   0.000000
    22  H   -0.000098  -0.000038   0.000027  -0.000036   0.000001   0.000000
    23  H   -0.000496  -0.000055  -0.002472   0.000350  -0.000097  -0.000001
    24  H   -0.000015   0.000000  -0.000119   0.000017   0.000508  -0.000903
    25  H   -0.000109  -0.000000  -0.001311  -0.000421   0.001118   0.000475
    26  C   -0.000048   0.000000  -0.000270   0.000228   0.001191  -0.003159
    27  H    0.000002  -0.000000   0.000065  -0.000003   0.000439  -0.000235
    28  C    0.000008  -0.000000   0.000397   0.000329  -0.000062   0.000058
    29  C   -0.000005   0.000000  -0.000386   0.000044  -0.000930   0.000450
    30  H   -0.000000   0.000000  -0.000017   0.000003   0.000004  -0.000031
    31  H   -0.000022   0.000001  -0.000733  -0.001704   0.000107  -0.000064
    32  C   -0.000000   0.000000  -0.000014   0.000001   0.000010  -0.000006
    33  H    0.000000   0.000000  -0.000000   0.000000  -0.000002   0.000001
    34  H   -0.000000   0.000000  -0.000000   0.000000   0.000000   0.000000
    35  H    0.000000  -0.000000   0.000003  -0.000001  -0.000001  -0.000000
    36  H    0.000000  -0.000000   0.000025  -0.000030  -0.000000  -0.000001
    37  H    0.000216  -0.000201  -0.000039   0.000004  -0.000001   0.000000
    38  O   -0.000037   0.000039   0.000003  -0.000000   0.000000  -0.000000
    39  H   -0.000016   0.000016   0.000001   0.000000  -0.000000   0.000000
              13         14         15         16         17         18
     1  C   -0.006772  -0.000596  -0.005173  -0.000005  -0.000069   0.000003
     2  C    0.003560   0.003152   0.003168   0.000000  -0.000000   0.000000
     3  C   -0.000366   0.000738  -0.000106  -0.000635  -0.001240   0.000434
     4  O    0.000160  -0.001997   0.000044  -0.000042  -0.000210  -0.000085
     5  C   -0.000012  -0.000028  -0.000009  -0.005995  -0.001100   0.001620
     6  O    0.000000   0.000000   0.000000   0.002842   0.000180  -0.000401
     7  C    0.000008   0.000002   0.000008   0.001535   0.000077  -0.000770
     8  O   -0.000000  -0.000000  -0.000000  -0.000048  -0.000001   0.000050
     9  C    0.000026  -0.000004   0.000012  -0.000007   0.000004  -0.000004
    10  O   -0.000000  -0.000000  -0.000001  -0.000000  -0.000000   0.000000
    11  C    0.000823  -0.000072   0.000775   0.000013   0.000005  -0.000006
    12  C   -0.000072   0.000022  -0.000170  -0.000000  -0.000000   0.000000
    13  H    0.020272  -0.001024  -0.003600  -0.000000   0.000001  -0.000000
    14  H   -0.001024   0.000967   0.000217   0.000000   0.000000   0.000000
    15  H   -0.003600   0.000217   0.014496   0.000000  -0.000000   0.000000
    16  C   -0.000000   0.000000   0.000000   0.005766   0.001047  -0.000429
    17  H    0.000001   0.000000  -0.000000   0.001047   0.001442  -0.000583
    18  H   -0.000000   0.000000   0.000000  -0.000429  -0.000583  -0.000518
    19  H    0.000000   0.000000  -0.000000  -0.000242  -0.000510   0.000748
    20  C    0.000000  -0.000000  -0.000000   0.000049   0.000001  -0.000011
    21  H   -0.000000   0.000000   0.000000  -0.000010  -0.000000   0.000001
    22  H   -0.000000   0.000000   0.000000  -0.000001  -0.000000   0.000000
    23  H    0.000000  -0.000000  -0.000000   0.000001   0.000000  -0.000000
    24  H    0.000129  -0.000013  -0.000295   0.000000   0.000000  -0.000000
    25  H    0.000014  -0.000001  -0.000030   0.000000   0.000000  -0.000000
    26  C   -0.000236   0.000003   0.000084  -0.000000  -0.000000   0.000000
    27  H    0.000176  -0.000002  -0.000035   0.000000   0.000000  -0.000000
    28  C    0.000000  -0.000000  -0.000000   0.000000   0.000000  -0.000000
    29  C   -0.000001  -0.000000   0.000001  -0.000000  -0.000000   0.000000
    30  H   -0.000000   0.000000   0.000000  -0.000000  -0.000000   0.000000
    31  H   -0.000000   0.000000   0.000000  -0.000000  -0.000000   0.000000
    32  C   -0.000001   0.000000   0.000000  -0.000000  -0.000000   0.000000
    33  H   -0.000000   0.000000   0.000000  -0.000000  -0.000000   0.000000
    34  H   -0.000000   0.000000   0.000000  -0.000000  -0.000000   0.000000
    35  H    0.000000  -0.000000  -0.000000   0.000000   0.000000  -0.000000
    36  H    0.000000  -0.000000  -0.000000   0.000000   0.000000  -0.000000
    37  H   -0.000000   0.000000   0.000000  -0.000031  -0.000001   0.000034
    38  O    0.000000  -0.000000  -0.000000   0.000006   0.000000  -0.000011
    39  H    0.000000  -0.000000  -0.000000   0.000002   0.000000  -0.000005
              19         20         21         22         23         24
     1  C    0.000000   0.000024  -0.000007  -0.000000   0.000011   0.000358
     2  C   -0.000000   0.000000   0.000000  -0.000000  -0.000000  -0.000294
     3  C   -0.000027  -0.000033   0.000001  -0.000000   0.000006   0.000015
     4  O   -0.000031  -0.000000   0.000000   0.000000  -0.000000  -0.000000
     5  C    0.000542   0.001720  -0.000419  -0.000026   0.000179   0.000003
     6  O    0.000174  -0.000068   0.000051   0.000002  -0.000002  -0.000000
     7  C   -0.000002   0.008845  -0.001499  -0.000098  -0.000496  -0.000015
     8  O    0.000000  -0.002570   0.000477  -0.000038  -0.000055   0.000000
     9  C   -0.000001  -0.000871   0.000224   0.000027  -0.002472  -0.000119
    10  O    0.000000  -0.000115  -0.000019  -0.000036   0.000350   0.000017
    11  C    0.000000  -0.000074   0.000013   0.000001  -0.000097   0.000508
    12  C    0.000000  -0.000000   0.000000   0.000000  -0.000001  -0.000903
    13  H    0.000000   0.000000  -0.000000  -0.000000   0.000000   0.000129
    14  H    0.000000  -0.000000   0.000000   0.000000  -0.000000  -0.000013
    15  H   -0.000000  -0.000000   0.000000   0.000000  -0.000000  -0.000295
    16  C   -0.000242   0.000049  -0.000010  -0.000001   0.000001   0.000000
    17  H   -0.000510   0.000001  -0.000000  -0.000000   0.000000   0.000000
    18  H    0.000748  -0.000011   0.000001   0.000000  -0.000000  -0.000000
    19  H   -0.000155  -0.000000   0.000000   0.000000  -0.000000  -0.000000
    20  C   -0.000000  -0.016092   0.001763   0.001272   0.000987   0.000000
    21  H    0.000000   0.001763  -0.000466  -0.000268  -0.000266  -0.000000
    22  H    0.000000   0.001272  -0.000268  -0.000462  -0.000623  -0.000000
    23  H   -0.000000   0.000987  -0.000266  -0.000623   0.002296   0.000000
    24  H   -0.000000   0.000000  -0.000000  -0.000000   0.000000  -0.001621
    25  H   -0.000000  -0.000000  -0.000000  -0.000000   0.000003   0.000379
    26  C    0.000000  -0.000000   0.000000   0.000000  -0.000000   0.000448
    27  H   -0.000000   0.000000  -0.000000  -0.000000   0.000000   0.000136
    28  C   -0.000000  -0.000000  -0.000000  -0.000000   0.000000   0.000026
    29  C    0.000000   0.000000   0.000000   0.000000  -0.000000  -0.000218
    30  H    0.000000  -0.000000   0.000000   0.000000  -0.000000  -0.000002
    31  H    0.000000  -0.000000   0.000000   0.000000  -0.000000  -0.000022
    32  C    0.000000  -0.000000   0.000000   0.000000  -0.000000   0.000001
    33  H    0.000000   0.000000  -0.000000   0.000000  -0.000000  -0.000000
    34  H    0.000000  -0.000000   0.000000   0.000000  -0.000000   0.000000
    35  H   -0.000000   0.000000  -0.000000  -0.000000   0.000000  -0.000000
    36  H   -0.000000   0.000000  -0.000000  -0.000000   0.000000   0.000000
    37  H    0.000000   0.000064  -0.000004  -0.000012  -0.000005  -0.000000
    38  O   -0.000000  -0.000007   0.000000   0.000003   0.000000   0.000000
    39  H    0.000000  -0.000001   0.000000   0.000000  -0.000000   0.000000
              25         26         27         28         29         30
     1  C    0.000326   0.000381  -0.000188  -0.000004  -0.000001   0.000000
     2  C   -0.000010   0.000034   0.000022  -0.000000  -0.000001   0.000000
     3  C   -0.000007   0.000009  -0.000011  -0.000000   0.000001   0.000000
     4  O   -0.000000  -0.000001   0.000000   0.000000  -0.000000  -0.000000
     5  C    0.000019   0.000015  -0.000001  -0.000000   0.000001  -0.000000
     6  O    0.000000  -0.000000   0.000000   0.000000  -0.000000  -0.000000
     7  C   -0.000109  -0.000048   0.000002   0.000008  -0.000005  -0.000000
     8  O   -0.000000   0.000000  -0.000000  -0.000000   0.000000   0.000000
     9  C   -0.001311  -0.000270   0.000065   0.000397  -0.000386  -0.000017
    10  O   -0.000421   0.000228  -0.000003   0.000329   0.000044   0.000003
    11  C    0.001118   0.001191   0.000439  -0.000062  -0.000930   0.000004
    12  C    0.000475  -0.003159  -0.000235   0.000058   0.000450  -0.000031
    13  H    0.000014  -0.000236   0.000176   0.000000  -0.000001  -0.000000
    14  H   -0.000001   0.000003  -0.000002  -0.000000  -0.000000   0.000000
    15  H   -0.000030   0.000084  -0.000035  -0.000000   0.000001   0.000000
[...]
    14  H(1)               0.00102       4.57267       1.63164       1.52528
    15  H(1)               0.00453      20.23422       7.22007       6.74941
    16  C(13)              0.00847       9.52057       3.39718       3.17572
    17  H(1)               0.00002       0.10304       0.03677       0.03437
    18  H(1)              -0.00033      -1.47578      -0.52659      -0.49227
    19  H(1)              -0.00007      -0.29217      -0.10425      -0.09746
    20  C(13)             -0.01032     -11.59793      -4.13843      -3.86865
    21  H(1)               0.00023       1.01757       0.36309       0.33943
    22  H(1)              -0.00003      -0.14897      -0.05316      -0.04969
    23  H(1)               0.00030       1.34777       0.48092       0.44957
    24  H(1)              -0.00083      -3.69828      -1.31964      -1.23361
    25  H(1)              -0.00060      -2.67515      -0.95456      -0.89233
    26  C(13)              0.00431       4.84240       1.72789       1.61525
    27  H(1)              -0.00116      -5.19073      -1.85218      -1.73144
    28  C(13)              0.00186       2.09145       0.74628       0.69763
    29  C(13)             -0.01077     -12.10261      -4.31851      -4.03700
    30  H(1)              -0.00100      -4.46744      -1.59409      -1.49018
    31  H(1)              -0.00013      -0.57049      -0.20357      -0.19030
    32  C(13)              0.00222       2.49602       0.89064       0.83258
    33  H(1)              -0.00010      -0.46642      -0.16643      -0.15558
    34  H(1)              -0.00082      -3.64517      -1.30069      -1.21590
    35  H(1)              -0.00088      -3.94838      -1.40888      -1.31704
    36  H(1)              -0.00055      -2.44253      -0.87156      -0.81474
    37  H(1)              -0.00001      -0.03467      -0.01237      -0.01157
    38  O(17)             -0.00008       0.04909       0.01752       0.01637
    39  H(1)              -0.00000      -0.00517      -0.00185      -0.00173
 --------------------------------------------------------
       Center         ----  Spin Dipole Couplings  ----
                      3XX-RR        3YY-RR        3ZZ-RR
 --------------------------------------------------------
     1   Atom       -0.115255     -0.119949      0.235204
     2   Atom        0.005882     -0.004703     -0.001179
     3   Atom        0.015221      0.031224     -0.046445
     4   Atom       -0.674180     -0.730179      1.404359
     5   Atom       -0.131827     -0.130878      0.262704
     6   Atom       -0.040654      0.005676      0.034978
     7   Atom        0.069451      0.094749     -0.164199
     8   Atom        0.003490      0.012866     -0.016356
     9   Atom       -0.086111     -0.078322      0.164434
    10   Atom       -0.449850     -0.493007      0.942857
    11   Atom        0.059901      0.055487     -0.115388
    12   Atom        0.006112     -0.000399     -0.005714
    13   Atom        0.003491      0.000161     -0.003651
    14   Atom        0.001970      0.002913     -0.004882
    15   Atom        0.002885      0.000058     -0.002943
    16   Atom       -0.000161     -0.004888      0.005049
    17   Atom        0.001626     -0.001838      0.000212
    18   Atom       -0.000583     -0.001348      0.001931
    19   Atom        0.002727     -0.001607     -0.001120
    20   Atom        0.004694      0.001473     -0.006167
    21   Atom        0.000922      0.000604     -0.001526
    22   Atom        0.000990     -0.000211     -0.000779
    23   Atom        0.002683     -0.000380     -0.002303
    24   Atom        0.000677      0.000258     -0.000934
    25   Atom        0.003692     -0.000713     -0.002978
    26   Atom        0.025775     -0.017177     -0.008599
    27   Atom        0.001137      0.000423     -0.001560
    28   Atom        0.002162     -0.000469     -0.001693
    29   Atom       -0.020071      0.019144      0.000927
    30   Atom        0.001832     -0.000907     -0.000925
    31   Atom        0.007437     -0.003399     -0.004038
    32   Atom        0.000837     -0.000682     -0.000156
    33   Atom        0.000723     -0.000365     -0.000358
    34   Atom        0.000498     -0.000071     -0.000427
    35   Atom        0.000508     -0.000052     -0.000455
    36   Atom        0.001142     -0.001016     -0.000126
    37   Atom        0.000137      0.000836     -0.000973
    38   Atom       -0.000096      0.000911     -0.000815
    39   Atom       -0.000392      0.000525     -0.000133
 --------------------------------------------------------
                        XY            XZ            YZ
 --------------------------------------------------------
     1   Atom        0.016337     -0.093181     -0.081867
     2   Atom       -0.000420      0.002229     -0.001250
     3   Atom        0.014310      0.015174      0.025776
     4   Atom        0.116964     -0.583360     -0.463404
     5   Atom        0.021544     -0.093668     -0.092628
     6   Atom        0.021876     -0.045642     -0.036013
     7   Atom       -0.012181      0.068805      0.049209
     8   Atom       -0.022533      0.007261      0.017394
     9   Atom        0.026387     -0.073525     -0.064553
    10   Atom        0.093472     -0.430974     -0.419892
    11   Atom       -0.004982      0.042143      0.049907
    12   Atom       -0.002520      0.002858      0.000696
    13   Atom       -0.003566     -0.000176      0.001025
    14   Atom       -0.006793      0.001397     -0.000355
    15   Atom       -0.003216      0.001331     -0.001096
    16   Atom        0.000418      0.009026      0.003273
    17   Atom       -0.002867      0.007316     -0.001548
    18   Atom       -0.001901      0.003045     -0.002997
    19   Atom       -0.001115      0.002286     -0.000401
    20   Atom       -0.000574     -0.000133     -0.004847
    21   Atom       -0.000791      0.000325      0.001542
    22   Atom       -0.000511     -0.000209      0.000237
    23   Atom       -0.002946     -0.004469      0.001409
    24   Atom        0.000014      0.000889     -0.000138
    25   Atom       -0.003981      0.002081     -0.000430
    26   Atom       -0.014334      0.032507     -0.004627
    27   Atom       -0.000992      0.000492      0.002586
    28   Atom        0.001138     -0.000778     -0.000023
    29   Atom        0.013125     -0.031784      0.008480
    30   Atom        0.000604     -0.000199     -0.000373
    31   Atom        0.002636     -0.001915     -0.000453
    32   Atom        0.000397     -0.000790     -0.000470
    33   Atom        0.000341     -0.000629     -0.000320
    34   Atom        0.000285      0.000053      0.000021
    35   Atom        0.000230     -0.000421     -0.000188
    36   Atom        0.001226     -0.001193     -0.000724
    37   Atom       -0.000476      0.000603     -0.000195
    38   Atom       -0.000649      0.000490     -0.000768
    39   Atom       -0.000358      0.000546     -0.000695
 --------------------------------------------------------


 ---------------------------------------------------------------------------------
              Anisotropic Spin Dipole Couplings in Principal Axis System
 ---------------------------------------------------------------------------------

       Atom             a.u.   MegaHertz   Gauss  10(-4) cm-1        Axes

              Baa    -0.1419   -19.042    -6.795    -6.352  0.6953  0.6473  0.3123
     1 C(13)  Bbb    -0.1341   -17.995    -6.421    -6.002 -0.6793  0.7338 -0.0087
              Bcc     0.2760    37.037    13.216    12.354 -0.2348 -0.2061  0.9499
 
              Baa    -0.0051    -0.686    -0.245    -0.229 -0.0281  0.9478  0.3175
     2 C(13)  Bbb    -0.0015    -0.197    -0.070    -0.066 -0.2920 -0.3115  0.9042
              Bcc     0.0066     0.883     0.315     0.294  0.9560 -0.0673  0.2856
 
              Baa    -0.0558    -7.490    -2.673    -2.499 -0.1519 -0.2576  0.9542
     3 C(13)  Bbb     0.0068     0.916     0.327     0.306  0.8623 -0.5064  0.0006
              Bcc     0.0490     6.574     2.346     2.193  0.4831  0.8229  0.2991
 
              Baa    -0.8304    60.085    21.440    20.042  0.6790  0.6632  0.3148
     4 O(17)  Bbb    -0.8224    59.506    21.233    19.849 -0.6910  0.7222 -0.0308
              Bcc     1.6527  -119.591   -42.673   -39.891 -0.2477 -0.1966  0.9487
 
              Baa    -0.1532   -20.558    -7.335    -6.857  0.9201 -0.3715  0.1245
     5 C(13)  Bbb    -0.1514   -20.314    -7.249    -6.776  0.3275  0.9036  0.2762
              Bcc     0.3046    40.872    14.584    13.633 -0.2151 -0.2134  0.9530
 
              Baa    -0.0625     4.521     1.613     1.508  0.9140 -0.0835  0.3971
     6 O(17)  Bbb    -0.0176     1.273     0.454     0.425 -0.1299  0.8670  0.4812
              Bcc     0.0801    -5.794    -2.067    -1.933 -0.3845 -0.4913  0.7815
 
              Baa    -0.1919   -25.753    -9.189    -8.590 -0.2583 -0.1741  0.9503
     7 C(13)  Bbb     0.0881    11.825     4.219     3.944  0.9657 -0.0737  0.2490
              Bcc     0.1038    13.929     4.970     4.646  0.0266  0.9820  0.1872
 
              Baa    -0.0329     2.379     0.849     0.794 -0.4584 -0.5041  0.7320
     8 O(17)  Bbb    -0.0001     0.010     0.003     0.003  0.6877  0.3205  0.6514
              Bcc     0.0330    -2.389    -0.852    -0.797 -0.5629  0.8020  0.1998
 
              Baa    -0.1106   -14.845    -5.297    -4.952  0.8758 -0.4662  0.1247
     9 C(13)  Bbb    -0.0909   -12.201    -4.354    -4.070  0.4059  0.8514  0.3321
              Bcc     0.2015    27.046     9.651     9.022 -0.2610 -0.2403  0.9350
 
              Baa    -0.6167    44.625    15.923    14.885  0.4016  0.8504  0.3399
    10 O(17)  Bbb    -0.5592    40.467    14.439    13.498  0.8777 -0.4634  0.1223
              Bcc     1.1760   -85.092   -30.363   -28.383 -0.2615 -0.2492  0.9325
 
              Baa    -0.1378   -18.494    -6.599    -6.169 -0.2079 -0.2495  0.9458
    11 C(13)  Bbb     0.0628     8.433     3.009     2.813 -0.6961  0.7170  0.0362
              Bcc     0.0750    10.061     3.590     3.356  0.6872  0.6509  0.3228
 
              Baa    -0.0066    -0.890    -0.318    -0.297 -0.2530 -0.2078  0.9449
    12 C(13)  Bbb    -0.0008    -0.110    -0.039    -0.037  0.2300  0.9358  0.2674
              Bcc     0.0075     1.000     0.357     0.334  0.9397 -0.2849  0.1890
 
              Baa    -0.0040    -2.141    -0.764    -0.714 -0.1453 -0.3514  0.9249
    13 H(1)   Bbb    -0.0018    -0.961    -0.343    -0.320  0.5271  0.7636  0.3729
              Bcc     0.0058     3.102     1.107     1.035  0.8373 -0.5417 -0.0742
 
              Baa    -0.0055    -2.941    -1.050    -0.981 -0.4568 -0.3336  0.8246
    14 H(1)   Bbb    -0.0038    -2.050    -0.731    -0.684  0.5696  0.6023  0.5592
              Bcc     0.0094     4.991     1.781     1.665 -0.6832  0.7252 -0.0851
 
              Baa    -0.0033    -1.774    -0.633    -0.592 -0.0890  0.2295  0.9692
    15 H(1)   Bbb    -0.0020    -1.075    -0.384    -0.359  0.5696  0.8100 -0.1395
              Bcc     0.0053     2.849     1.017     0.950  0.8171 -0.5397  0.2028
 
              Baa    -0.0080    -1.068    -0.381    -0.356  0.6331  0.5227 -0.5710
    16 C(13)  Bbb    -0.0044    -0.586    -0.209    -0.195 -0.5109  0.8362  0.1991
              Bcc     0.0123     1.653     0.590     0.551  0.5816  0.1657  0.7965
 
              Baa    -0.0066    -3.511    -1.253    -1.171 -0.6894 -0.1884  0.6995
    17 H(1)   Bbb    -0.0026    -1.387    -0.495    -0.463  0.0739  0.9423  0.3266
              Bcc     0.0092     4.898     1.748     1.634  0.7206 -0.2769  0.6356
 
              Baa    -0.0031    -1.672    -0.597    -0.558  0.1226  0.8847  0.4497
    18 H(1)   Bbb    -0.0026    -1.392    -0.497    -0.464  0.8611  0.1305 -0.4914
              Bcc     0.0057     3.065     1.093     1.022  0.4934 -0.4475  0.7458
 
              Baa    -0.0022    -1.181    -0.422    -0.394 -0.4540 -0.2732  0.8481
    19 H(1)   Bbb    -0.0018    -0.973    -0.347    -0.325  0.0616  0.9399  0.3358
              Bcc     0.0040     2.154     0.769     0.719  0.8889 -0.2047  0.4099
 
              Baa    -0.0085    -1.145    -0.408    -0.382  0.0280  0.4372  0.8989
    20 C(13)  Bbb     0.0036     0.487     0.174     0.162  0.3916  0.8226 -0.4123
              Bcc     0.0049     0.657     0.235     0.219  0.9197 -0.3636  0.1482
 
              Baa    -0.0025    -1.315    -0.469    -0.439 -0.1941 -0.4800  0.8555
    21 H(1)   Bbb     0.0007     0.353     0.126     0.118  0.7944  0.4347  0.4242
              Bcc     0.0018     0.962     0.343     0.321 -0.5755  0.7620  0.2969
 
              Baa    -0.0009    -0.462    -0.165    -0.154  0.0155 -0.3303  0.9437
    22 H(1)   Bbb    -0.0004    -0.187    -0.067    -0.062  0.3799  0.8750  0.3000
              Bcc     0.0012     0.649     0.232     0.216  0.9249 -0.3539 -0.1390
 
              Baa    -0.0049    -2.640    -0.942    -0.881  0.5260  0.0780  0.8469
    23 H(1)   Bbb    -0.0018    -0.980    -0.350    -0.327  0.3151  0.9071 -0.2792
              Bcc     0.0068     3.621     1.292     1.208  0.7900 -0.4137 -0.4525
 
              Baa    -0.0013    -0.715    -0.255    -0.238 -0.4025  0.0822  0.9117
    24 H(1)   Bbb     0.0003     0.142     0.051     0.047  0.0817  0.9952 -0.0537
              Bcc     0.0011     0.572     0.204     0.191  0.9118 -0.0529  0.4073
 
              Baa    -0.0039    -2.096    -0.748    -0.699 -0.4460 -0.4488  0.7744
    25 H(1)   Bbb    -0.0025    -1.356    -0.484    -0.452  0.2806  0.7515  0.5971
              Bcc     0.0065     3.452     1.232     1.151  0.8499 -0.4836  0.2092
 
              Baa    -0.0294    -3.950    -1.410    -1.318 -0.5411 -0.3428  0.7679
    26 C(13)  Bbb    -0.0192    -2.576    -0.919    -0.859 -0.0024  0.9138  0.4062
              Bcc     0.0486     6.526     2.329     2.177  0.8410 -0.2180  0.4953
 
              Baa    -0.0035    -1.889    -0.674    -0.630 -0.2047 -0.5703  0.7955
    27 H(1)   Bbb     0.0011     0.581     0.207     0.194  0.8831  0.2429  0.4013
              Bcc     0.0025     1.309     0.467     0.437 -0.4221  0.7847  0.4539
 
              Baa    -0.0019    -0.252    -0.090    -0.084  0.2328 -0.1723  0.9571
    28 C(13)  Bbb    -0.0008    -0.112    -0.040    -0.037 -0.2906  0.9269  0.2375
              Bcc     0.0027     0.364     0.130     0.121  0.9281  0.3334 -0.1657
 
              Baa    -0.0467    -6.272    -2.238    -2.092  0.7902 -0.2305  0.5679
    29 C(13)  Bbb     0.0224     3.008     1.073     1.003 -0.1103  0.8580  0.5017
              Bcc     0.0243     3.264     1.165     1.089 -0.6029 -0.4591  0.6525
 
              Baa    -0.0013    -0.703    -0.251    -0.234 -0.1015  0.7462  0.6579
    30 H(1)   Bbb    -0.0007    -0.356    -0.127    -0.119  0.2117 -0.6300  0.7472
              Bcc     0.0020     1.059     0.378     0.353  0.9720  0.2151 -0.0941
 
              Baa    -0.0044    -2.322    -0.828    -0.774  0.1450  0.0685  0.9871
    31 H(1)   Bbb    -0.0040    -2.137    -0.763    -0.713 -0.2297  0.9727 -0.0338
              Bcc     0.0084     4.459     1.591     1.487  0.9624  0.2219 -0.1568
 
              Baa    -0.0010    -0.129    -0.046    -0.043  0.0529  0.8387  0.5420
    32 C(13)  Bbb    -0.0005    -0.063    -0.023    -0.021  0.5558 -0.4756  0.6818
              Bcc     0.0014     0.192     0.069     0.064  0.8296  0.2651 -0.4914
 
              Baa    -0.0007    -0.391    -0.140    -0.131  0.2430  0.4982  0.8323
    33 H(1)   Bbb    -0.0004    -0.219    -0.078    -0.073 -0.4463  0.8193 -0.3601
              Bcc     0.0011     0.610     0.218     0.204  0.8613  0.2839 -0.4214
 
              Baa    -0.0004    -0.230    -0.082    -0.077 -0.0509 -0.0193  0.9985
    34 H(1)   Bbb    -0.0002    -0.101    -0.036    -0.034 -0.3831  0.9237 -0.0017
              Bcc     0.0006     0.331     0.118     0.110  0.9223  0.3827  0.0544
 
              Baa    -0.0006    -0.337    -0.120    -0.112  0.3088  0.1808  0.9338
    35 H(1)   Bbb    -0.0001    -0.071    -0.025    -0.024 -0.3700  0.9273 -0.0572
              Bcc     0.0008     0.407     0.145     0.136  0.8762  0.3279 -0.3532
 
              Baa    -0.0016    -0.854    -0.305    -0.285 -0.3327  0.9247  0.1848
    36 H(1)   Bbb    -0.0008    -0.450    -0.161    -0.150  0.5099  0.0115  0.8602
              Bcc     0.0024     1.305     0.465     0.435  0.7933  0.3804 -0.4754
 
              Baa    -0.0012    -0.660    -0.236    -0.220 -0.4036 -0.0065  0.9149
    37 H(1)   Bbb     0.0001     0.032     0.011     0.011  0.7609  0.5529  0.3396
              Bcc     0.0012     0.628     0.224     0.209 -0.5080  0.8332 -0.2182
 
              Baa    -0.0012     0.085     0.030     0.028 -0.2666  0.2594  0.9283
    38 O(17)  Bbb    -0.0004     0.029     0.010     0.010  0.8638  0.4915  0.1108
              Bcc     0.0016    -0.114    -0.041    -0.038 -0.4275  0.8314 -0.3551
 
              Baa    -0.0008    -0.453    -0.162    -0.151  0.6971 -0.1705 -0.6964
    39 H(1)   Bbb    -0.0003    -0.183    -0.065    -0.061  0.6209  0.6292  0.4675
              Bcc     0.0012     0.637     0.227     0.212 -0.3585  0.7583 -0.5445
 

 ---------------------------------------------------------------------------------

 Unable to Open any file for archive entry.
 1\1\GINC-P08R01N33\FOpt\UHF\6-31G(d)\C14H20O5(1-,2)\JL3566\26-Oct-2021
 \1\\# HF/6-31G* Opt=(Z-matrix,MaxCycles=100) Geom=PrintInputOrient\\<q
 mtool> simtype="Geometry optimization" </qmtool> Q1H-ACC-O4\\-1,2\C,0,
 -0.2269999981,-1.5310000181,-0.6560000181\C,0,0.2840000093,-2.91199994
 09,-0.9819999933\C,0,-1.6100000143,-1.4620000124,-0.1850000024\O,0,-2.
 3350000381,-2.4830000401,-0.0659999996\C,0,-2.1180000305,-0.1299999952
 ,0.1280000061\O,0,-3.4419999123,0.0240000002,0.5090000033\C,0,-1.32799
 99495,0.9879999757,0.0089999996\O,0,-1.8309999704,2.2200000286,0.38800
 00114\C,0,0.0309999995,0.9350000024,-0.4970000088\O,0,0.7220000029,2.0
 050001144,-0.6690000296\C,0,0.5389999747,-0.3939999938,-0.7929999828\C
 ,0,1.9720000029,-0.4300000072,-1.2539999485\H,0,1.0260000229,-3.260999
 918,-0.2540000081\H,0,-0.5630000234,-3.6010000706,-0.9589999914\H,0,0.
 7549999952,-2.9479999542,-1.9700000286\C,0,-3.7509999275,-0.6349999905
 ,1.7410000563\H,0,-3.5380001068,-1.7020000219,1.6699999571\H,0,-3.1830
 000877,-0.1840000004,2.5659999847\H,0,-4.8179998398,-0.4679999948,1.90
 90000391\C,0,-2.132999897,3.0239999294,-0.75\H,0,-2.9059998989,2.54600
 00038,-1.3650000095\H,0,-2.5150001049,3.9719998837,-0.3610000014\H,0,-
 1.2300000191,3.2000000477,-1.3400000334\H,0,2.1019999981,-1.1749999523
 ,-2.0529999733\H,0,2.2119998932,0.5500000119,-1.6720000505\C,0,2.88899
 9939,-0.7829999924,-0.1150000021\H,0,2.8800001144,-1.8339999914,0.1790
 000051\C,0,3.7630000114,1.5349999666,0.3269999921\C,0,3.6710000038,0.0
 529999994,0.5820000172\H,0,4.6760001183,1.7840000391,-0.2329999954\H,0
 ,2.8849999905,1.9040000439,-0.2070000023\C,0,4.5430002213,-0.460999995
 5,1.6979999542\H,0,4.4499998093,-1.5460000038,1.8140000105\H,0,5.59899
 99771,-0.2240000069,1.5119999647\H,0,4.2769999504,0.0109999999,2.65300
 01163\H,0,3.8210000992,2.0710000992,1.2819999456\H,8,rAH,7,124.43,20,1
 80.,0\X,37,1.,8,90.,7,0.,0\O,37,0.9572,38,90.,8,180.,0\H,39,0.9572,37,
 104.52,38,dih,0\\rAH=1.94698326\dih=57.94451432\\Version=ES64L-G16RevC
 .01\State=2-A\HF=-916.0580464\S2=0.91694\S2-1=0.\S2A=0.770216\RMSD=9.1
 21e-09\RMSF=8.429e-03\Dipole=1.5505998,-0.4787343,0.0304561\Quadrupole
 =-7.92695,-3.7252652,11.6522152,-2.5821792,6.4116873,-6.6569926\PG=C01
  [X(C14H20O5)]\\@
 The archive entry for this job was punched.


 The theorems and results in mathematical physics are
 not theorems and results about Nature, but about our
 description of it.
                   --Gerard 't Hooft
 Job cpu time:       0 days  0 hours 41 minutes 33.8 seconds.
 Elapsed time:       0 days  0 hours 10 minutes 28.6 seconds.
 File lengths (MBytes):  RWF=    176 Int=      0 D2E=      0 Chk=     16 Scr=      8
 Normal termination of Gaussian 16 at Tue Oct 26 23:14:07 2021.
