 Entering Gaussian System, Link 0=g16
 Initial command:
 /gpfs/loomis/apps/avx/software/Gaussian/16-C.01_AVX/g16/l1.exe "/home/jl3566/scratch60/g16/Gau-75007.inp" -scrdir="/home/jl3566/scratch60/g16/"
 Entering Link 1 = /gpfs/loomis/apps/avx/software/Gaussian/16-C.01_AVX/g16/l1.exe PID=     75008.
  
 Copyright (c) 1988-2019, Gaussian, Inc.  All Rights Reserved.
  
 This is part of the Gaussian(R) 16 program.  It is based on
 the Gaussian(R) 09 system (copyright 2009, Gaussian, Inc.),
 the Gaussian(R) 03 system (copyright 2003, Gaussian, Inc.),
 the Gaussian(R) 98 system (copyright 1998, Gaussian, Inc.),
 the Gaussian(R) 94 system (copyright 1995, Gaussian, Inc.),
 the Gaussian 92(TM) system (copyright 1992, Gaussian, Inc.),
 the Gaussian 90(TM) system (copyright 1990, Gaussian, Inc.),
 the Gaussian 88(TM) system (copyright 1988, Gaussian, Inc.),
 the Gaussian 86(TM) system (copyright 1986, Carnegie Mellon
 University), and the Gaussian 82(TM) system (copyright 1983,
 Carnegie Mellon University). Gaussian is a federally registered
 trademark of Gaussian, Inc.
  
 This software contains proprietary and confidential information,
 including trade secrets, belonging to Gaussian, Inc.
  
 This software is provided under written license and may be
 used, copied, transmitted, or stored only in accord with that
 written license.
  
 The following legend is applicable only to US Government
 contracts under FAR:
  
                    RESTRICTED RIGHTS LEGEND
  
 Use, reproduction and disclosure by the US Government is
 subject to restrictions as set forth in subparagraphs (a)
 and (c) of the Commercial Computer Software - Restricted
 Rights clause in FAR 52.227-19.
  
 Gaussian, Inc.
 340 Quinnipiac St., Bldg. 40, Wallingford CT 06492
  
  
 ---------------------------------------------------------------
 Warning -- This program may not be used in any manner that
 competes with the business of Gaussian, Inc. or will provide
 assistance to any competitor of Gaussian, Inc.  The licensee
 of this program is prohibited from giving any competitor of
 Gaussian, Inc. access to this program.  By using this program,
 the user acknowledges that Gaussian, Inc. is engaged in the
 business of creating and licensing software in the field of
 computational chemistry and represents and warrants to the
 licensee that it is not a competitor of Gaussian, Inc. and that
 it will not use this program in any manner prohibited above.
 ---------------------------------------------------------------
  

 Cite this work as:
 Gaussian 16, Revision C.01,
 M. J. Frisch, G. W. Trucks, H. B. Schlegel, G. E. Scuseria, 
 M. A. Robb, J. R. Cheeseman, G. Scalmani, V. Barone, 
 G. A. Petersson, H. Nakatsuji, X. Li, M. Caricato, A. V. Marenich, 
 J. Bloino, B. G. Janesko, R. Gomperts, B. Mennucci, H. P. Hratchian, 
 J. V. Ortiz, A. F. Izmaylov, J. L. Sonnenberg, D. Williams-Young, 
 F. Ding, F. Lipparini, F. Egidi, J. Goings, B. Peng, A. Petrone, 
 T. Henderson, D. Ranasinghe, V. G. Zakrzewski, J. Gao, N. Rega, 
 G. Zheng, W. Liang, M. Hada, M. Ehara, K. Toyota, R. Fukuda, 
 J. Hasegawa, M. Ishida, T. Nakajima, Y. Honda, O. Kitao, H. Nakai, 
 T. Vreven, K. Throssell, J. A. Montgomery, Jr., J. E. Peralta, 
 F. Ogliaro, M. J. Bearpark, J. J. Heyd, E. N. Brothers, K. N. Kudin, 
 V. N. Staroverov, T. A. Keith, R. Kobayashi, J. Normand, 
 K. Raghavachari, A. P. Rendell, J. C. Burant, S. S. Iyengar, 
 J. Tomasi, M. Cossi, J. M. Millam, M. Klene, C. Adamo, R. Cammi, 
 J. W. Ochterski, R. L. Martin, K. Morokuma, O. Farkas, 
 J. B. Foresman, and D. J. Fox, Gaussian, Inc., Wallingford CT, 2019.
 
 ******************************************
 Gaussian 16:  ES64L-G16RevC.01  3-Jul-2019
                26-Oct-2021 
 ******************************************
 %chk=Q1H-sp-MP2.chk
 %nproc=4
 Will use up to    4 processors via shared memory.
 %mem=4GB
 --------------------------------------
 # MP2/6-31G* SCF=Tight Density=Current
 --------------------------------------
 1/30=1,38=1,172=1/1;
 2/12=2,17=6,18=5,40=1/2;
 3/5=1,6=6,7=1,11=9,25=1,30=1,71=1/1,2,3;
 4//1;
 5/5=2,32=2,38=5/2;
 8/6=4,10=2/1;
 9/15=1,16=-3/6;
 10/5=1,13=10/2;
 6/7=2,8=2,9=2,10=2,22=-1/1;
 99/5=1,9=1/99;
 ----------------------------------------------------------------
 <qmtool> simtype="Single point calculation" </qmtool> Q1H-sp-MP2
 ----------------------------------------------------------------
 Symbolic Z-matrix:
 Charge = -1 Multiplicity = 2
 C1                   -0.227    -1.531    -0.656 
 C2                    0.284    -2.912    -0.982 
 C3                   -1.61     -1.462    -0.185 
 O4                   -2.335    -2.483    -0.066 
 C5                   -2.118    -0.13      0.128 
 O6                   -3.442     0.024     0.509 
 C7                   -1.328     0.988     0.009 
 O8                   -1.831     2.22      0.388 
 C9                    0.031     0.935    -0.497 
 O10                   0.722     2.005    -0.669 
 C11                   0.539    -0.394    -0.793 
 C12                   1.972    -0.43     -1.254 
 H13                   1.026    -3.261    -0.254 
 H14                  -0.563    -3.601    -0.959 
 H15                   0.755    -2.948    -1.97 
 C16                  -3.751    -0.635     1.741 
 H17                  -3.538    -1.702     1.67 
 H18                  -3.183    -0.184     2.566 
 H19                  -4.818    -0.468     1.909 
 C20                  -2.133     3.024    -0.75 
 H21                  -2.906     2.546    -1.365 
 H22                  -2.515     3.972    -0.361 
 H23                  -1.23      3.2      -1.34 
 H24                   2.102    -1.175    -2.053 
 H25                   2.212     0.55     -1.672 
 C26                   2.889    -0.783    -0.115 
 H27                   2.88     -1.834     0.179 
 C28                   3.763     1.535     0.327 
 C29                   3.671     0.053     0.582 
 H30                   4.676     1.784    -0.233 
 H31                   2.885     1.904    -0.207 
 C32                   4.543    -0.461     1.698 
 H33                   4.45     -1.546     1.814 
 H34                   5.599    -0.224     1.512 
 H35                   4.277     0.011     2.653 
 H36                   3.821     2.071     1.282 
 
                          Input orientation:                          
 ---------------------------------------------------------------------
 Center     Atomic      Atomic             Coordinates (Angstroms)
 Number     Number       Type             X           Y           Z
 ---------------------------------------------------------------------
      1          6           0       -0.227000   -1.531000   -0.656000
      2          6           0        0.284000   -2.912000   -0.982000
      3          6           0       -1.610000   -1.462000   -0.185000
      4          8           0       -2.335000   -2.483000   -0.066000
      5          6           0       -2.118000   -0.130000    0.128000
      6          8           0       -3.442000    0.024000    0.509000
      7          6           0       -1.328000    0.988000    0.009000
      8          8           0       -1.831000    2.220000    0.388000
      9          6           0        0.031000    0.935000   -0.497000
     10          8           0        0.722000    2.005000   -0.669000
     11          6           0        0.539000   -0.394000   -0.793000
     12          6           0        1.972000   -0.430000   -1.254000
     13          1           0        1.026000   -3.261000   -0.254000
     14          1           0       -0.563000   -3.601000   -0.959000
     15          1           0        0.755000   -2.948000   -1.970000
     16          6           0       -3.751000   -0.635000    1.741000
     17          1           0       -3.538000   -1.702000    1.670000
     18          1           0       -3.183000   -0.184000    2.566000
     19          1           0       -4.818000   -0.468000    1.909000
     20          6           0       -2.133000    3.024000   -0.750000
     21          1           0       -2.906000    2.546000   -1.365000
     22          1           0       -2.515000    3.972000   -0.361000
     23          1           0       -1.230000    3.200000   -1.340000
     24          1           0        2.102000   -1.175000   -2.053000
     25          1           0        2.212000    0.550000   -1.672000
     26          6           0        2.889000   -0.783000   -0.115000
     27          1           0        2.880000   -1.834000    0.179000
     28          6           0        3.763000    1.535000    0.327000
     29          6           0        3.671000    0.053000    0.582000
     30          1           0        4.676000    1.784000   -0.233000
     31          1           0        2.885000    1.904000   -0.207000
     32          6           0        4.543000   -0.461000    1.698000
     33          1           0        4.450000   -1.546000    1.814000
     34          1           0        5.599000   -0.224000    1.512000
     35          1           0        4.277000    0.011000    2.653000
     36          1           0        3.821000    2.071000    1.282000
 ---------------------------------------------------------------------
                    Distance matrix (angstroms):
                    1          2          3          4          5
     1  C    0.000000
     2  C    1.508164   0.000000
     3  C    1.462632   2.514944   0.000000
     4  O    2.387063   2.807536   1.257866   0.000000
     5  C    2.480592   3.839431   1.459540   2.370935   0.000000
     6  O    3.756524   4.972550   2.458873   2.800201   1.386309
     7  C    2.828389   4.334815   2.473795   3.614902   1.374112
     8  O    4.211028   5.717303   3.732867   4.751667   2.381695
     9  C    2.484552   3.885697   2.921615   4.179287   2.478518
    10  O    3.661157   4.946383   4.206254   5.463607   3.641296
    11  C    1.377786   2.537926   2.475579   3.626614   2.824462
    12  C    2.530890   3.013910   3.877952   4.916951   4.327589
    13  H    2.173594   1.096517   3.192124   3.454989   4.453518
    14  H    2.118869   1.092089   2.504118   2.277577   3.955684
    15  H    2.167674   1.095117   3.314762   3.659172   4.538376
    16  C    4.355112   5.374075   2.996212   2.947102   2.350209
    17  H    4.049968   4.806754   2.686226   2.251858   2.620181
    18  H    4.575328   5.661305   3.416960   3.596099   2.661012
    19  H    5.365303   6.353064   3.957794   3.758476   3.252108
    20  C    4.938593   6.413408   4.551588   5.552991   3.273962
    21  H    4.929670   6.333447   4.374481   5.225350   3.164012
    22  H    5.966991   7.457177   5.511656   6.464244   4.150076
    23  H    4.884284   6.306893   4.817953   5.927950   3.745994
    24  H    2.739085   2.733008   4.165422   5.034481   4.863865
    25  H    3.363263   4.022279   4.568041   5.696800   4.738280
    26  C    3.249868   3.474242   4.550488   5.493867   5.055245
    27  H    3.231483   3.041253   4.520064   5.260936   5.280741
    28  C    5.127060   5.795924   6.173596   7.313301   6.115389
    29  C    4.385898   4.765406   5.547294   6.551583   5.809658
    30  H    5.933596   6.473259   7.074787   8.209099   7.067684
    31  H    4.656755   5.528081   5.615645   6.820121   5.411043
    32  C    5.425783   5.597221   6.512074   7.382890   6.851524
    33  H    5.289183   5.199916   6.381744   7.102717   6.927213
    34  H    6.352224   6.457136   7.508804   8.398900   7.840688
    35  H    5.797694   6.140131   6.699309   7.571759   6.876884
    36  H    5.754698   6.516621   6.643037   7.775111   6.438000
                    6          7          8          9         10
     6  O    0.000000
     7  C    2.376614   0.000000
     8  O    2.726239   1.383645   0.000000
     9  C    3.728765   1.451112   2.429299   0.000000
    10  O    4.759300   2.386729   2.771513   1.285288   0.000000
    11  C    4.209310   2.457400   3.720841   1.453245   2.409163
    12  C    5.711889   3.807347   4.917466   2.490734   2.798920
    13  H    5.597894   4.864616   6.214175   4.319200   5.291068
    14  H    4.856366   4.751965   6.107886   4.597997   5.758695
    15  H    5.709031   4.873133   6.241457   4.215637   5.121123
    16  C    1.430939   3.391885   3.697030   4.666591   5.725856
    17  H    2.082358   3.857346   4.465362   4.938362   6.112313
    18  H    2.083649   3.369400   3.514371   4.578638   5.523221
    19  H    2.023719   4.232025   4.296621   5.591963   6.591920
    20  C    3.506931   2.317197   1.425715   3.018414   3.032482
    21  H    3.187422   2.608702   2.082045   3.460450   3.733561
    22  H    4.147642   3.232665   2.024441   3.965348   3.800279
    23  H    4.289373   2.592749   2.075472   2.725985   2.385072
    24  H    6.223936   4.549210   5.740470   3.340999   3.732594
    25  H    6.082857   3.943248   4.835116   2.507112   2.311522
    26  C    6.412658   4.575468   5.616887   3.356428   3.574318
    27  H    6.597632   5.069502   6.218691   4.030030   4.484862
    28  C    7.363985   5.130167   5.636114   3.868695   3.234285
    29  C    7.113434   5.117866   5.916547   3.897661   3.751254
    30  H    8.339670   6.061369   6.551091   4.729326   3.984100
    31  H    6.639125   4.316837   4.763878   3.027933   2.214094
    32  C    8.087594   6.278612   7.037879   5.208165   5.126781
    33  H    8.151784   6.562352   7.461045   5.569887   5.716019
    34  H    9.099846   7.191056   7.901988   6.031748   5.788811
    35  H    8.011234   6.273858   6.878777   5.367010   5.258303
    36  H    7.585440   5.413467   5.724207   4.338138   3.662589
                   11         12         13         14         15
    11  C    0.000000
    12  C    1.505758   0.000000
    13  H    2.957597   3.147932   0.000000
    14  H    3.395116   4.070441   1.771312   0.000000
    15  H    2.820443   2.886879   1.765238   1.784840   0.000000
    16  C    4.988320   6.462567   5.804794   5.123524   6.278975
    17  H    4.939551   6.366150   5.192529   4.400962   5.764717
    18  H    5.017994   6.420821   5.927564   5.564703   6.612325
    19  H    6.000311   7.490668   6.828745   6.012166   7.228787
    20  C    4.338681   5.388428   7.051703   6.811696   6.744904
    21  H    4.564954   5.715224   7.100436   6.590910   6.629704
    22  H    5.345605   6.348876   8.053969   7.843356   7.821009
    23  H    4.042945   4.841188   6.929174   6.844242   6.491150
    24  H    2.154189   1.100148   2.957291   3.766237   2.228189
    25  H    2.112512   1.092119   4.235687   5.043788   3.801007
    26  C    2.476591   1.504267   3.103317   4.535390   3.561208
    27  H    2.915247   2.202083   2.379314   4.033805   3.220997
    28  C    3.920410   3.093294   5.552508   6.837146   5.866989
    29  C    3.449617   2.547702   4.321749   5.801134   4.901200
    30  H    4.708721   3.640859   6.226955   7.548008   6.386175
    31  H    3.335853   2.716125   5.489564   6.539055   5.584530
    32  C    4.716099   3.914755   4.900979   6.556713   5.829952
    33  H    4.839367   4.098605   4.352198   6.086273   5.471497
    34  H    5.562870   4.565996   5.766667   7.448504   6.558112
    35  H    5.100155   4.557648   5.452122   7.036952   6.521679
    36  H    4.599280   4.013116   6.213014   7.510867   6.720582
                   16         17         18         19         20
    16  C    0.000000
    17  H    1.090366   0.000000
    18  H    1.098476   1.798100   0.000000
    19  H    1.092978   1.793956   1.784805   0.000000
    20  C    4.712885   5.492313   4.731767   5.145247   0.000000
    21  H    4.525486   5.258912   4.793995   4.843451   1.097378
    22  H    5.212538   6.112754   5.126976   5.492750   1.093595
    23  H    5.527678   6.198110   5.524717   6.073217   1.092925
    24  H    6.995973   6.778500   7.088615   8.005229   6.104476
    25  H    6.972099   7.021607   6.899668   7.954922   5.084268
    26  C    6.896103   6.733284   6.664514   7.974562   6.333795
    27  H    6.917196   6.590238   6.721625   8.007375   7.042256
    28  C    7.947861   8.098544   7.497666   8.952558   6.175748
    29  C    7.543388   7.498897   7.139310   8.607874   6.654884
    30  H    8.986800   9.123782   8.571541   9.989780   6.940272
    31  H    7.367341   7.601401   6.990701   8.333069   5.170065
    32  C    8.295937   8.175783   7.779539   9.363380   7.918769
    33  H    8.251766   7.990821   7.789945   9.330966   8.413969
    34  H    9.361830   9.257117   8.845114  10.427417   8.686194
    35  H    8.105421   8.060700   7.463055   9.137943   7.857905
    36  H    8.054086   8.278947   7.469250   9.026183   6.362967
                   21         22         23         24         25
    21  H    0.000000
    22  H    1.787281   0.000000
    23  H    1.799254   1.790433   0.000000
    24  H    6.276882   7.118368   5.545378   0.000000
    25  H    5.502017   5.981081   4.356614   1.769996   0.000000
    26  C    6.799027   7.202344   5.859273   2.128116   2.158580
    27  H    7.419308   7.944008   6.673876   2.453852   3.091259
    28  C    6.954175   6.769461   5.520975   3.970821   2.715111
    29  C    7.298136   7.383387   6.133310   3.303478   2.730606
    30  H    7.703817   7.517593   6.173438   4.323605   3.108822
    31  H    5.940438   5.784491   4.460553   3.674377   2.105343
    32  C    8.597187   8.585240   7.480635   4.531918   4.220496
    33  H    8.997846   9.148233   8.045783   4.539211   4.642635
    34  H    9.396013   9.324781   8.154319   5.083565   4.712611
    35  H    8.611971   8.420510   7.512711   5.318238   4.822901
    36  H    7.244637   6.816021   5.801907   4.961220   3.691672
                   26         27         28         29         30
    26  C    0.000000
    27  H    1.091384   0.000000
    28  C    2.516419   3.485937   0.000000
    29  C    1.340235   2.085392   1.506590   0.000000
    30  H    3.129981   4.060207   1.099623   2.161160   0.000000
    31  H    2.688578   3.757880   1.091880   2.160213   1.795204
    32  C    2.475150   2.637813   2.544024   1.506664   2.964199
    33  H    2.596138   2.284966   3.489369   2.163669   3.915378
    34  H    3.209939   3.429570   2.805210   2.158428   2.815851
    35  H    3.196687   3.387670   2.827905   2.158250   3.410532
    36  H    3.311427   4.165467   1.096670   2.141220   1.763128
                   31         32         33         34         35
    31  H    0.000000
    32  C    3.459944   0.000000
    33  H    4.293736   1.095139   0.000000
    34  H    3.853458   1.098135   1.777383   0.000000
    35  H    3.701448   1.097982   1.777104   1.762042   0.000000
    36  H    1.766665   2.665589   3.709630   2.912252   2.516183
                   36
    36  H    0.000000
 Stoichiometry    C14H18O4(1-,2)
 Framework group  C1[X(C14H18O4)]
 Deg. of freedom   102
 Full point group                 C1      NOp   1
 Largest Abelian subgroup         C1      NOp   1
 Largest concise Abelian subgroup C1      NOp   1
                         Standard orientation:                         
 ---------------------------------------------------------------------
 Center     Atomic      Atomic             Coordinates (Angstroms)
 Number     Number       Type             X           Y           Z
 ---------------------------------------------------------------------
      1          6           0       -0.226993   -1.531029   -0.655888
      2          6           0        0.283959   -2.912047   -0.981888
      3          6           0       -1.609991   -1.461982   -0.184888
      4          8           0       -2.335026   -2.482957   -0.065888
      5          6           0       -2.117945   -0.129964    0.128112
      6          8           0       -3.441939    0.024082    0.509112
      7          6           0       -1.327906    0.988009    0.009112
      8          8           0       -1.830864    2.220026    0.388112
      9          6           0        0.031092    0.934962   -0.496888
     10          8           0        0.722129    2.004938   -0.668888
     11          6           0        0.539046   -0.394056   -0.792888
     12          6           0        1.972045   -0.430105   -1.253888
     13          1           0        1.025947   -3.261073   -0.253888
     14          1           0       -0.563065   -3.601018   -0.958888
     15          1           0        0.754958   -2.948063   -1.969888
     16          6           0       -3.750962   -0.634908    1.741112
     17          1           0       -3.537999   -1.701915    1.670112
     18          1           0       -3.182947   -0.183927    2.566112
     19          1           0       -4.817956   -0.467871    1.909112
     20          6           0       -2.132836    3.024036   -0.749888
     21          1           0       -2.905852    2.546063   -1.364888
     22          1           0       -2.514803    3.972049   -0.360888
     23          1           0       -1.229830    3.200005   -1.339888
     24          1           0        2.102019   -1.175110   -2.052888
     25          1           0        2.212079    0.549886   -1.671888
     26          6           0        2.889033   -0.783137   -0.114888
     27          1           0        2.879996   -1.834137    0.179112
     28          6           0        3.763113    1.534833    0.327112
     29          6           0        3.671062    0.052836    0.582112
     30          1           0        4.676121    1.783801   -0.232888
     31          1           0        2.885125    1.903863   -0.206888
     32          6           0        4.543044   -0.461194    1.698112
     33          1           0        4.450006   -1.546191    1.814112
     34          1           0        5.599052   -0.224231    1.512112
     35          1           0        4.277060    0.010815    2.653112
     36          1           0        3.821131    2.070831    1.282112
 ---------------------------------------------------------------------
 Rotational constants (GHZ):           0.5940365           0.2834385           0.2236505
 Standard basis: 6-31G(d) (6D, 7F)
 There are   306 symmetry adapted cartesian basis functions of A   symmetry.
 There are   306 symmetry adapted basis functions of A   symmetry.
   306 basis functions,   576 primitive gaussians,   306 cartesian basis functions
    68 alpha electrons       67 beta electrons
       nuclear repulsion energy      1356.3464477625 Hartrees.
 NAtoms=   36 NActive=   36 NUniq=   36 SFac= 1.00D+00 NAtFMM=   60 NAOKFM=F Big=F
 Integral buffers will be    131072 words long.
 Raffenetti 2 integral format.
 Two-electron integral symmetry is turned on.
 One-electron integrals computed using PRISM.
 NBasis=   306 RedAO= T EigKep=  3.08D-04  NBF=   306
 NBsUse=   306 1.00D-06 EigRej= -1.00D+00 NBFU=   306
 ExpMin= 1.61D-01 ExpMax= 5.48D+03 ExpMxC= 8.25D+02 IAcc=3 IRadAn=         5 AccDes= 0.00D+00
 Harris functional with IExCor=  205 and IRadAn=       5 diagonalized for initial guess.
 HarFok:  IExCor=  205 AccDes= 0.00D+00 IRadAn=         5 IDoV= 1 UseB2=F ITyADJ=14
 ICtDFT=  3500011 ScaDFX=  1.000000  1.000000  1.000000  1.000000
 FoFCou: FMM=F IPFlag=           0 FMFlag=      100000 FMFlg1=           0
         NFxFlg=           0 DoJE=T BraDBF=F KetDBF=T FulRan=T
         wScrn=  0.000000 ICntrl=       500 IOpCl=  0 I1Cent=   200000004 NGrid=           0
         NMat0=    1 NMatS0=      1 NMatT0=    0 NMatD0=    1 NMtDS0=    0 NMtDT0=    0
 Petite list used in FoFCou.
 Initial guess <Sx>= 0.0000 <Sy>= 0.0000 <Sz>= 0.5000 <S**2>= 0.7500 S= 0.5000
 Requested convergence on RMS density matrix=1.00D-08 within 128 cycles.
 Requested convergence on MAX density matrix=1.00D-06.
 Requested convergence on             energy=1.00D-06.
 No special actions if energy rises.
 Integral accuracy reduced to 1.0D-05 until final iterations.
 Initial convergence to 1.0D-05 achieved.  Increase integral accuracy.
 Restarting incremental Fock formation.
 SCF Done:  E(UHF) =  -840.032367663     A.U. after   44 cycles
            NFock= 44  Conv=0.71D-08     -V/T= 2.0020
 <Sx>= 0.0000 <Sy>= 0.0000 <Sz>= 0.5000 <S**2>= 0.8901 S= 0.5677
 <L.S>=  0.00000000000    
 Annihilation of the first spin contaminant:
 S**2 before annihilation     0.8901,   after     0.7631
 ExpMin= 1.61D-01 ExpMax= 5.48D+03 ExpMxC= 8.25D+02 IAcc=3 IRadAn=         5 AccDes= 0.00D+00
 HarFok:  IExCor=  205 AccDes= 0.00D+00 IRadAn=         5 IDoV=-2 UseB2=F ITyADJ=14
 ICtDFT= 12500011 ScaDFX=  1.000000  1.000000  1.000000  1.000000
 Range of M.O.s used for correlation:    19   306
 NBasis=   306 NAE=    68 NBE=    67 NFC=    18 NFV=     0
 NROrb=    288 NOA=    50 NOB=    49 NVA=   238 NVB=   239
 Disk-based method using ON**2 memory for 50 occupieds at a time.
 Estimated scratch disk usage=  2347872692 words.
 Actual    scratch disk usage=  2039067060 words.
 JobTyp=2 Pass  1:  I=  19 to  68 NPSUse=  4 ParTrn=T ParDer=T DoDerP=T.
 Actual    scratch disk usage=  2039067060 words.
 JobTyp=3 Pass  1:  I=  19 to  67 NPSUse=  4 ParTrn=T ParDer=T DoDerP=T.
 Spin components of T(2) and E(2):
     alpha-alpha T2 =       0.1129554715D+00 E2=     -0.3369244915D+00
     alpha-beta  T2 =       0.6014354475D+00 E2=     -0.1842511587D+01
     beta-beta   T2 =       0.1117681894D+00 E2=     -0.3316308897D+00
 (S**2,0)=  0.89007D+00           (S**2,1)=  0.83480D+00
 E(PUHF)=      -0.84004469890D+03        E(PMP2)=      -0.84255345968D+03
 ANorm=    0.1351354546D+01
 E2 =    -0.2511066968D+01 EUMP2 =    -0.84254343463074D+03
          Differentiating once with respect to electric field.
                with respect to dipole field.
          Electric field/nuclear overlap derivatives assumed to be zero.
          There are     1 degrees of freedom in the 1st order CPHF.  IDoFFX=0 NUNeed=     1.
 LinEq1:  Iter=  0 NonCon=     1 RMS=1.89D-03 Max=6.07D-02 NDo=     1
 AX will form     1 AO Fock derivatives at one time.
 LinEq1:  Iter=  1 NonCon=     1 RMS=8.16D-04 Max=3.86D-02 NDo=     1
 LinEq1:  Iter=  2 NonCon=     1 RMS=4.81D-04 Max=2.54D-02 NDo=     1
 LinEq1:  Iter=  3 NonCon=     1 RMS=2.07D-04 Max=7.83D-03 NDo=     1
 LinEq1:  Iter=  4 NonCon=     1 RMS=8.61D-05 Max=3.74D-03 NDo=     1
 LinEq1:  Iter=  5 NonCon=     1 RMS=3.19D-05 Max=1.30D-03 NDo=     1
 LinEq1:  Iter=  6 NonCon=     1 RMS=1.76D-05 Max=1.19D-03 NDo=     1
 LinEq1:  Iter=  7 NonCon=     1 RMS=5.90D-06 Max=1.86D-04 NDo=     1
 LinEq1:  Iter=  8 NonCon=     1 RMS=2.25D-06 Max=9.72D-05 NDo=     1
 LinEq1:  Iter=  9 NonCon=     1 RMS=9.27D-07 Max=4.38D-05 NDo=     1
 LinEq1:  Iter= 10 NonCon=     1 RMS=4.36D-07 Max=2.94D-05 NDo=     1
 LinEq1:  Iter= 11 NonCon=     1 RMS=2.37D-07 Max=1.02D-05 NDo=     1
 LinEq1:  Iter= 12 NonCon=     1 RMS=1.06D-07 Max=3.87D-06 NDo=     1
 LinEq1:  Iter= 13 NonCon=     1 RMS=3.29D-08 Max=8.65D-07 NDo=     1
 LinEq1:  Iter= 14 NonCon=     1 RMS=1.38D-08 Max=8.36D-07 NDo=     1
 LinEq1:  Iter= 15 NonCon=     1 RMS=5.89D-09 Max=1.92D-07 NDo=     1
 LinEq1:  Iter= 16 NonCon=     1 RMS=2.29D-09 Max=8.23D-08 NDo=     1
 LinEq1:  Iter= 17 NonCon=     1 RMS=8.88D-10 Max=2.06D-08 NDo=     1
 LinEq1:  Iter= 18 NonCon=     1 RMS=3.48D-10 Max=9.97D-09 NDo=     1
 LinEq1:  Iter= 19 NonCon=     1 RMS=1.66D-10 Max=1.16D-08 NDo=     1
 LinEq1:  Iter= 20 NonCon=     1 RMS=7.35D-11 Max=3.60D-09 NDo=     1
 LinEq1:  Iter= 21 NonCon=     1 RMS=2.58D-11 Max=1.04D-09 NDo=     1
 LinEq1:  Iter= 22 NonCon=     0 RMS=8.78D-12 Max=3.10D-10 NDo=     1
 Linear equations converged to 1.000D-10 1.000D-09 after    22 iterations.
 End of Minotr F.D. properties file   721 does not exist.
 End of Minotr F.D. properties file   722 does not exist.
 End of Minotr F.D. properties file   788 does not exist.

 **********************************************************************

            Population analysis using the MP2 Density.

 **********************************************************************

 Orbital symmetries:
 Alpha Orbitals:
       Occupied  (A) (A) (A) (A) (A) (A) (A) (A) (A) (A) (A) (A)
                 (A) (A) (A) (A) (A) (A) (A) (A) (A) (A) (A) (A)
                 (A) (A) (A) (A) (A) (A) (A) (A) (A) (A) (A) (A)
                 (A) (A) (A) (A) (A) (A) (A) (A) (A) (A) (A) (A)
                 (A) (A) (A) (A) (A) (A) (A) (A) (A) (A) (A) (A)
                 (A) (A) (A) (A) (A) (A) (A) (A)
       Virtual   (A) (A) (A) (A) (A) (A) (A) (A) (A) (A) (A) (A)
                 (A) (A) (A) (A) (A) (A) (A) (A) (A) (A) (A) (A)
                 (A) (A) (A) (A) (A) (A) (A) (A) (A) (A) (A) (A)
                 (A) (A) (A) (A) (A) (A) (A) (A) (A) (A) (A) (A)
                 (A) (A) (A) (A) (A) (A) (A) (A) (A) (A) (A) (A)
                 (A) (A) (A) (A) (A) (A) (A) (A) (A) (A) (A) (A)
                 (A) (A) (A) (A) (A) (A) (A) (A) (A) (A) (A) (A)
                 (A) (A) (A) (A) (A) (A) (A) (A) (A) (A) (A) (A)
                 (A) (A) (A) (A) (A) (A) (A) (A) (A) (A) (A) (A)
                 (A) (A) (A) (A) (A) (A) (A) (A) (A) (A) (A) (A)
                 (A) (A) (A) (A) (A) (A) (A) (A) (A) (A) (A) (A)
                 (A) (A) (A) (A) (A) (A) (A) (A) (A) (A) (A) (A)
                 (A) (A) (A) (A) (A) (A) (A) (A) (A) (A) (A) (A)
                 (A) (A) (A) (A) (A) (A) (A) (A) (A) (A) (A) (A)
                 (A) (A) (A) (A) (A) (A) (A) (A) (A) (A) (A) (A)
                 (A) (A) (A) (A) (A) (A) (A) (A) (A) (A) (A) (A)
                 (A) (A) (A) (A) (A) (A) (A) (A) (A) (A) (A) (A)
                 (A) (A) (A) (A) (A) (A) (A) (A) (A) (A) (A) (A)
                 (A) (A) (A) (A) (A) (A) (A) (A) (A) (A) (A) (A)
                 (A) (A) (A) (A) (A) (A) (A) (A) (A) (A)
 Beta  Orbitals:
       Occupied  (A) (A) (A) (A) (A) (A) (A) (A) (A) (A) (A) (A)
                 (A) (A) (A) (A) (A) (A) (A) (A) (A) (A) (A) (A)
                 (A) (A) (A) (A) (A) (A) (A) (A) (A) (A) (A) (A)
                 (A) (A) (A) (A) (A) (A) (A) (A) (A) (A) (A) (A)
                 (A) (A) (A) (A) (A) (A) (A) (A) (A) (A) (A) (A)
                 (A) (A) (A) (A) (A) (A) (A)
       Virtual   (A) (A) (A) (A) (A) (A) (A) (A) (A) (A) (A) (A)
                 (A) (A) (A) (A) (A) (A) (A) (A) (A) (A) (A) (A)
                 (A) (A) (A) (A) (A) (A) (A) (A) (A) (A) (A) (A)
                 (A) (A) (A) (A) (A) (A) (A) (A) (A) (A) (A) (A)
                 (A) (A) (A) (A) (A) (A) (A) (A) (A) (A) (A) (A)
                 (A) (A) (A) (A) (A) (A) (A) (A) (A) (A) (A) (A)
                 (A) (A) (A) (A) (A) (A) (A) (A) (A) (A) (A) (A)
                 (A) (A) (A) (A) (A) (A) (A) (A) (A) (A) (A) (A)
                 (A) (A) (A) (A) (A) (A) (A) (A) (A) (A) (A) (A)
                 (A) (A) (A) (A) (A) (A) (A) (A) (A) (A) (A) (A)
                 (A) (A) (A) (A) (A) (A) (A) (A) (A) (A) (A) (A)
                 (A) (A) (A) (A) (A) (A) (A) (A) (A) (A) (A) (A)
                 (A) (A) (A) (A) (A) (A) (A) (A) (A) (A) (A) (A)
                 (A) (A) (A) (A) (A) (A) (A) (A) (A) (A) (A) (A)
                 (A) (A) (A) (A) (A) (A) (A) (A) (A) (A) (A) (A)
                 (A) (A) (A) (A) (A) (A) (A) (A) (A) (A) (A) (A)
                 (A) (A) (A) (A) (A) (A) (A) (A) (A) (A) (A) (A)
                 (A) (A) (A) (A) (A) (A) (A) (A) (A) (A) (A) (A)
                 (A) (A) (A) (A) (A) (A) (A) (A) (A) (A) (A) (A)
                 (A) (A) (A) (A) (A) (A) (A) (A) (A) (A) (A)
 The electronic state is 2-A.
 Alpha  occ. eigenvalues --  -20.43915 -20.43079 -20.39410 -20.35382 -11.14972
 Alpha  occ. eigenvalues --  -11.14716 -11.14098 -11.14090 -11.13212 -11.13014
 Alpha  occ. eigenvalues --  -11.12058 -11.11424 -11.10366 -11.09587 -11.09381
 Alpha  occ. eigenvalues --  -11.09315 -11.09228 -11.08552  -1.26018  -1.23730
 Alpha  occ. eigenvalues --   -1.21239  -1.16604  -0.99195  -0.96976  -0.90689
 Alpha  occ. eigenvalues --   -0.87755  -0.82723  -0.82107  -0.80992  -0.78637
 Alpha  occ. eigenvalues --   -0.75400  -0.73698  -0.63963  -0.63360  -0.58890
 Alpha  occ. eigenvalues --   -0.56881  -0.53559  -0.52422  -0.51203  -0.50647
 Alpha  occ. eigenvalues --   -0.49023  -0.48420  -0.48073  -0.47780  -0.47407
 Alpha  occ. eigenvalues --   -0.45792  -0.44841  -0.44325  -0.42800  -0.42278
 Alpha  occ. eigenvalues --   -0.41875  -0.40740  -0.40224  -0.39820  -0.39051
 Alpha  occ. eigenvalues --   -0.38637  -0.37628  -0.36997  -0.36085  -0.34528
 Alpha  occ. eigenvalues --   -0.32833  -0.30755  -0.27063  -0.26533  -0.24501
 Alpha  occ. eigenvalues --   -0.21342  -0.18129  -0.09801
 Alpha virt. eigenvalues --    0.27898   0.30843   0.33058   0.33979   0.35887
 Alpha virt. eigenvalues --    0.38231   0.39105   0.39590   0.40455   0.41390
 Alpha virt. eigenvalues --    0.42164   0.42720   0.43353   0.43937   0.44447
 Alpha virt. eigenvalues --    0.44727   0.45971   0.46787   0.47083   0.47189
 Alpha virt. eigenvalues --    0.48178   0.50927   0.51309   0.51711   0.53394
 Alpha virt. eigenvalues --    0.54577   0.56484   0.58059   0.59511   0.63198
 Alpha virt. eigenvalues --    0.64869   0.65171   0.68454   0.69941   0.72498
 Alpha virt. eigenvalues --    0.75071   0.75640   0.77042   0.81032   0.82992
 Alpha virt. eigenvalues --    0.83594   0.84570   0.86587   0.87402   0.88690
 Alpha virt. eigenvalues --    0.88960   0.89240   0.90143   0.90858   0.91772
 Alpha virt. eigenvalues --    0.92129   0.92887   0.94769   0.96294   0.96420
 Alpha virt. eigenvalues --    0.98002   0.99135   0.99558   1.02949   1.03645
 Alpha virt. eigenvalues --    1.05610   1.06736   1.07797   1.07934   1.08864
 Alpha virt. eigenvalues --    1.10425   1.10701   1.11708   1.12392   1.13639
 Alpha virt. eigenvalues --    1.14405   1.16192   1.17496   1.19032   1.19865
 Alpha virt. eigenvalues --    1.21252   1.23775   1.24157   1.24738   1.24947
 Alpha virt. eigenvalues --    1.25597   1.26240   1.27268   1.27703   1.28191
 Alpha virt. eigenvalues --    1.28281   1.29572   1.30833   1.31204   1.31473
 Alpha virt. eigenvalues --    1.32063   1.33902   1.34352   1.34598   1.35870
 Alpha virt. eigenvalues --    1.37603   1.38419   1.39711   1.41718   1.42173
 Alpha virt. eigenvalues --    1.42602   1.45682   1.48570   1.49506   1.50864
 Alpha virt. eigenvalues --    1.51689   1.52613   1.55026   1.56952   1.58473
 Alpha virt. eigenvalues --    1.58854   1.60515   1.62122   1.63554   1.65085
 Alpha virt. eigenvalues --    1.66206   1.67257   1.71576   1.73742   1.75464
 Alpha virt. eigenvalues --    1.77595   1.79639   1.80174   1.81151   1.83012
 Alpha virt. eigenvalues --    1.84461   1.85051   1.86967   1.87741   1.88964
 Alpha virt. eigenvalues --    1.90124   1.92516   1.94201   1.98949   2.02805
 Alpha virt. eigenvalues --    2.05816   2.09089   2.11879   2.14773   2.15291
 Alpha virt. eigenvalues --    2.17913   2.18768   2.20435   2.21144   2.23515
 Alpha virt. eigenvalues --    2.24501   2.26688   2.27490   2.28685   2.28725
 Alpha virt. eigenvalues --    2.31259   2.32675   2.33675   2.34164   2.35544
 Alpha virt. eigenvalues --    2.37353   2.39034   2.40107   2.42262   2.42450
 Alpha virt. eigenvalues --    2.45403   2.47138   2.48031   2.50690   2.51012
 Alpha virt. eigenvalues --    2.53172   2.54118   2.55254   2.55924   2.56839
 Alpha virt. eigenvalues --    2.59298   2.60872   2.61398   2.63284   2.66036
 Alpha virt. eigenvalues --    2.67363   2.68755   2.69011   2.70499   2.71703
 Alpha virt. eigenvalues --    2.73607   2.74593   2.74810   2.79103   2.81468
 Alpha virt. eigenvalues --    2.82770   2.83988   2.85711   2.86263   2.87501
 Alpha virt. eigenvalues --    2.88427   2.90771   2.93901   2.94857   2.95089
 Alpha virt. eigenvalues --    2.97740   3.00917   3.02647   3.05071   3.08305
 Alpha virt. eigenvalues --    3.09920   3.13312   3.13545   3.16736   3.17608
 Alpha virt. eigenvalues --    3.23518   3.26902   3.31407   3.32586   3.38083
 Alpha virt. eigenvalues --    3.42268   3.46952   3.47475   3.52216   3.54362
 Alpha virt. eigenvalues --    3.56208   3.58290   3.62426   3.86934   3.93977
 Alpha virt. eigenvalues --    4.39235   4.53952   4.62883   4.67939   4.74345
 Alpha virt. eigenvalues --    4.77128   4.78221   4.81099   4.82181   4.84005
 Alpha virt. eigenvalues --    4.91516   4.92771   4.98920   5.06391   5.12982
 Alpha virt. eigenvalues --    5.23006   5.37046   5.82186
  Beta  occ. eigenvalues --  -20.43899 -20.43077 -20.37557 -20.33902 -11.15227
  Beta  occ. eigenvalues --  -11.14692 -11.14123 -11.13568 -11.13393 -11.12833
  Beta  occ. eigenvalues --  -11.12048 -11.11515 -11.10293 -11.09367 -11.09322
  Beta  occ. eigenvalues --  -11.09305 -11.09037 -11.08834  -1.25783  -1.23494
  Beta  occ. eigenvalues --   -1.17454  -1.13385  -0.98838  -0.96245  -0.90444
  Beta  occ. eigenvalues --   -0.87143  -0.82511  -0.81701  -0.80980  -0.78229
  Beta  occ. eigenvalues --   -0.74238  -0.73030  -0.63429  -0.62651  -0.58869
  Beta  occ. eigenvalues --   -0.56756  -0.53217  -0.52153  -0.50968  -0.50100
  Beta  occ. eigenvalues --   -0.48886  -0.48265  -0.48079  -0.47653  -0.46994
  Beta  occ. eigenvalues --   -0.44962  -0.43984  -0.43269  -0.42547  -0.41835
  Beta  occ. eigenvalues --   -0.40875  -0.40023  -0.39319  -0.38778  -0.37603
  Beta  occ. eigenvalues --   -0.37491  -0.36215  -0.35049  -0.34334  -0.32014
  Beta  occ. eigenvalues --   -0.30638  -0.28882  -0.25075  -0.23402  -0.21340
  Beta  occ. eigenvalues --   -0.17589  -0.16438
  Beta virt. eigenvalues --    0.21453   0.29905   0.32672   0.34217   0.35852
  Beta virt. eigenvalues --    0.37992   0.38487   0.39272   0.40473   0.40957
  Beta virt. eigenvalues --    0.41609   0.42409   0.42825   0.43513   0.43930
  Beta virt. eigenvalues --    0.44469   0.44805   0.46042   0.46944   0.47310
  Beta virt. eigenvalues --    0.47379   0.48517   0.51214   0.51543   0.52224
  Beta virt. eigenvalues --    0.53898   0.54864   0.56862   0.58596   0.59991
  Beta virt. eigenvalues --    0.63899   0.65083   0.65595   0.69051   0.70118
  Beta virt. eigenvalues --    0.72629   0.75207   0.75959   0.77570   0.81231
  Beta virt. eigenvalues --    0.83184   0.83850   0.85048   0.86628   0.87549
  Beta virt. eigenvalues --    0.88757   0.89337   0.89538   0.90368   0.90947
  Beta virt. eigenvalues --    0.91880   0.92277   0.92997   0.95106   0.96392
  Beta virt. eigenvalues --    0.96589   0.98129   0.99272   0.99478   1.03337
  Beta virt. eigenvalues --    1.03930   1.05911   1.06893   1.07897   1.08088
  Beta virt. eigenvalues --    1.09151   1.10630   1.10827   1.12327   1.12514
  Beta virt. eigenvalues --    1.13771   1.14859   1.16619   1.18066   1.19037
  Beta virt. eigenvalues --    1.20034   1.21632   1.24000   1.24230   1.24792
  Beta virt. eigenvalues --    1.25084   1.25680   1.26490   1.27369   1.27838
  Beta virt. eigenvalues --    1.28293   1.28540   1.29859   1.31040   1.31303
  Beta virt. eigenvalues --    1.31516   1.32173   1.34290   1.34478   1.34780
  Beta virt. eigenvalues --    1.36045   1.37961   1.38593   1.40050   1.41834
  Beta virt. eigenvalues --    1.42529   1.42779   1.46447   1.49860   1.51498
  Beta virt. eigenvalues --    1.52067   1.53017   1.53964   1.55974   1.57575
  Beta virt. eigenvalues --    1.58941   1.59942   1.61245   1.62743   1.64180
  Beta virt. eigenvalues --    1.65976   1.67113   1.67517   1.71914   1.73916
  Beta virt. eigenvalues --    1.75477   1.77802   1.80420   1.81187   1.81961
  Beta virt. eigenvalues --    1.83382   1.84520   1.85211   1.87099   1.87998
  Beta virt. eigenvalues --    1.89668   1.90377   1.92630   1.94318   1.99119
  Beta virt. eigenvalues --    2.03189   2.06159   2.09352   2.12269   2.15007
  Beta virt. eigenvalues --    2.15734   2.18601   2.19192   2.20903   2.21520
  Beta virt. eigenvalues --    2.24140   2.25232   2.27089   2.27699   2.29184
  Beta virt. eigenvalues --    2.29914   2.31472   2.33427   2.34094   2.35386
  Beta virt. eigenvalues --    2.36341   2.37964   2.39452   2.40669   2.42415
  Beta virt. eigenvalues --    2.43003   2.45932   2.47572   2.48161   2.50994
  Beta virt. eigenvalues --    2.51912   2.53473   2.54360   2.55663   2.56251
  Beta virt. eigenvalues --    2.57655   2.59557   2.60975   2.61606   2.63491
  Beta virt. eigenvalues --    2.66422   2.67767   2.68771   2.69341   2.70682
  Beta virt. eigenvalues --    2.71967   2.73676   2.74954   2.75385   2.79291
  Beta virt. eigenvalues --    2.81695   2.82826   2.84200   2.85786   2.86542
  Beta virt. eigenvalues --    2.87588   2.88605   2.90890   2.94130   2.94923
  Beta virt. eigenvalues --    2.95313   2.97998   3.01457   3.02957   3.05427
  Beta virt. eigenvalues --    3.09487   3.10496   3.13633   3.14048   3.17100
  Beta virt. eigenvalues --    3.17786   3.23759   3.27266   3.31706   3.32991
  Beta virt. eigenvalues --    3.38103   3.42667   3.47191   3.47600   3.52471
  Beta virt. eigenvalues --    3.54715   3.56493   3.58620   3.62798   3.87029
  Beta virt. eigenvalues --    3.94060   4.39599   4.54565   4.63133   4.68005
  Beta virt. eigenvalues --    4.74706   4.77323   4.78197   4.81143   4.82267
  Beta virt. eigenvalues --    4.84001   4.91575   4.92958   4.98965   5.06767
  Beta virt. eigenvalues --    5.12987   5.23159   5.37530   5.82478
          Condensed to atoms (all electrons):
               1          2          3          4          5          6
     1  C    5.579299   0.264286   0.286360  -0.103679  -0.070852   0.004766
     2  C    0.264286   5.381850  -0.030157  -0.020789   0.008186  -0.000050
     3  C    0.286360  -0.030157   4.759467   0.513801   0.210909  -0.044667
     4  O   -0.103679  -0.020789   0.513801   8.528749  -0.098382  -0.002448
     5  C   -0.070852   0.008186   0.210909  -0.098382   5.461709   0.226719
     6  O    0.004766  -0.000050  -0.044667  -0.002448   0.226719   8.326212
     7  C   -0.042096  -0.001031  -0.008929   0.008484   0.268249  -0.075677
     8  O    0.000018   0.000001   0.002410  -0.000013  -0.056428  -0.002163
     9  C   -0.033274   0.007253  -0.043115  -0.000090  -0.020670   0.003230
    10  O    0.004010  -0.000052  -0.000106  -0.000000   0.004273  -0.000009
    11  C    0.338265  -0.070570  -0.005698   0.007761  -0.053755  -0.000117
    12  C   -0.047264  -0.024890   0.004708  -0.000065  -0.000899   0.000001
    13  H   -0.032681   0.353399  -0.001415   0.000557  -0.000124   0.000001
    14  H   -0.037744   0.339655  -0.004013   0.039597   0.001487  -0.000006
    15  H   -0.040407   0.349373   0.000612   0.000568  -0.000017   0.000000
    16  C   -0.000650  -0.000007  -0.009332  -0.016892  -0.047767   0.226669
    17  H   -0.000131   0.000044   0.000577   0.036265  -0.011456  -0.032142
    18  H    0.000219  -0.000001   0.000552   0.000368  -0.000841  -0.045247
    19  H    0.000010  -0.000000   0.000127   0.000302   0.003794  -0.037790
    20  C   -0.000015  -0.000000  -0.000012   0.000002  -0.008459   0.000670
    21  H   -0.000023   0.000000  -0.000168   0.000000   0.005917   0.000860
    22  H   -0.000000   0.000000   0.000003  -0.000000   0.000031  -0.000018
    23  H   -0.000010   0.000000   0.000036  -0.000000  -0.000594   0.000027
    24  H   -0.006600   0.001326   0.000036  -0.000000   0.000013   0.000000
    25  H    0.003563   0.000055  -0.000010   0.000000  -0.000029   0.000000
    26  C   -0.005472  -0.000293   0.000035   0.000001  -0.000055  -0.000000
    27  H    0.000462   0.000077  -0.000021   0.000001  -0.000002   0.000000
    28  C    0.000001  -0.000002  -0.000000  -0.000000   0.000002  -0.000000
    29  C   -0.000233   0.000107   0.000006   0.000000  -0.000004  -0.000000
    30  H    0.000000  -0.000000   0.000000   0.000000  -0.000000   0.000000
    31  H   -0.000017  -0.000001   0.000001  -0.000000  -0.000006   0.000000
    32  C   -0.000001   0.000000  -0.000000   0.000000   0.000000  -0.000000
    33  H    0.000000  -0.000003   0.000000   0.000000  -0.000000   0.000000
    34  H   -0.000000  -0.000000   0.000000   0.000000  -0.000000  -0.000000
    35  H    0.000002  -0.000000  -0.000000  -0.000000  -0.000000   0.000000
    36  H    0.000001   0.000000  -0.000000   0.000000  -0.000000   0.000000
               7          8          9         10         11         12
     1  C   -0.042096   0.000018  -0.033274   0.004010   0.338265  -0.047264
     2  C   -0.001031   0.000001   0.007253  -0.000052  -0.070570  -0.024890
     3  C   -0.008929   0.002410  -0.043115  -0.000106  -0.005698   0.004708
     4  O    0.008484  -0.000013  -0.000090  -0.000000   0.007761  -0.000065
     5  C    0.268249  -0.056428  -0.020670   0.004273  -0.053755  -0.000899
     6  O   -0.075677  -0.002163   0.003230  -0.000009  -0.000117   0.000001
     7  C    5.427083   0.203032   0.197482  -0.063212  -0.058807   0.007950
     8  O    0.203032   8.327552  -0.057443  -0.001361   0.004783  -0.000071
     9  C    0.197482  -0.057443   4.978106   0.416988   0.233517  -0.047957
    10  O   -0.063212  -0.001361   0.416988   8.083818  -0.066183  -0.012204
    11  C   -0.058807   0.004783   0.233517  -0.066183   5.565971   0.235850
    12  C    0.007950  -0.000071  -0.047957  -0.012204   0.235850   5.399554
    13  H    0.000013  -0.000000  -0.000039   0.000001  -0.002964   0.001107
    14  H   -0.000091   0.000000  -0.000035   0.000000   0.003687   0.000093
    15  H   -0.000003  -0.000000   0.000051   0.000000  -0.001905  -0.001495
    16  C   -0.004267   0.000280   0.000106   0.000001   0.000012  -0.000000
    17  H   -0.000751   0.000011   0.000031  -0.000000  -0.000035   0.000000
    18  H    0.005623   0.000134  -0.000133  -0.000000  -0.000025   0.000000
    19  H    0.000063  -0.000019   0.000005  -0.000000  -0.000001   0.000000
    20  C   -0.054722   0.231495  -0.006339  -0.005473   0.000057   0.000005
    21  H   -0.001275  -0.040689  -0.000352   0.000304   0.000118  -0.000001
    22  H    0.005754  -0.035047  -0.000095   0.000128   0.000004  -0.000000
    23  H   -0.007229  -0.042721   0.004872   0.006385  -0.000550   0.000018
    24  H   -0.000073   0.000000   0.003324   0.000294  -0.037308   0.354749
    25  H    0.000621  -0.000003  -0.008609   0.011217  -0.042101   0.363995
    26  C    0.000131   0.000000  -0.001139  -0.000144  -0.052627   0.291932
    27  H    0.000006  -0.000000  -0.000065  -0.000017  -0.001360  -0.048371
    28  C   -0.000088   0.000000   0.000042  -0.009993   0.000934  -0.013646
    29  C   -0.000005   0.000000   0.001616   0.000354  -0.003046  -0.036665
    30  H   -0.000000   0.000000   0.000019   0.000146  -0.000083   0.000384
    31  H    0.000207  -0.000007  -0.000555   0.015794  -0.000940  -0.000464
    32  C   -0.000001   0.000000  -0.000038  -0.000001  -0.000154   0.006048
    33  H    0.000000  -0.000000   0.000001   0.000000  -0.000007  -0.000019
    34  H    0.000000   0.000000   0.000001  -0.000000  -0.000010  -0.000170
    35  H   -0.000000  -0.000000   0.000000   0.000001   0.000043  -0.000109
    36  H    0.000002  -0.000000  -0.000037   0.000105   0.000061   0.000394
              13         14         15         16         17         18
     1  C   -0.032681  -0.037744  -0.040407  -0.000650  -0.000131   0.000219
     2  C    0.353399   0.339655   0.349373  -0.000007   0.000044  -0.000001
     3  C   -0.001415  -0.004013   0.000612  -0.009332   0.000577   0.000552
     4  O    0.000557   0.039597   0.000568  -0.016892   0.036265   0.000368
     5  C   -0.000124   0.001487  -0.000017  -0.047767  -0.011456  -0.000841
     6  O    0.000001  -0.000006   0.000000   0.226669  -0.032142  -0.045247
     7  C    0.000013  -0.000091  -0.000003  -0.004267  -0.000751   0.005623
     8  O   -0.000000   0.000000  -0.000000   0.000280   0.000011   0.000134
     9  C   -0.000039  -0.000035   0.000051   0.000106   0.000031  -0.000133
    10  O    0.000001   0.000000   0.000000   0.000001  -0.000000  -0.000000
    11  C   -0.002964   0.003687  -0.001905   0.000012  -0.000035  -0.000025
    12  C    0.001107   0.000093  -0.001495  -0.000000   0.000000   0.000000
    13  H    0.614498  -0.024600  -0.040757   0.000000   0.000002   0.000000
    14  H   -0.024600   0.473012  -0.021325   0.000011  -0.000032  -0.000001
    15  H   -0.040757  -0.021325   0.631740   0.000000  -0.000001   0.000000
    16  C    0.000000   0.000011   0.000000   5.006992   0.351393   0.341570
    17  H    0.000002  -0.000032  -0.000001   0.351393   0.497955  -0.040915
    18  H    0.000000  -0.000001   0.000000   0.341570  -0.040915   0.671614
    19  H    0.000000  -0.000000   0.000000   0.361388  -0.027622  -0.039961
    20  C    0.000000  -0.000000  -0.000000  -0.000222  -0.000000   0.000048
    21  H   -0.000000  -0.000000   0.000000   0.000038   0.000003  -0.000008
    22  H   -0.000000   0.000000   0.000000   0.000005  -0.000000  -0.000003
    23  H   -0.000000   0.000000   0.000000   0.000000   0.000000   0.000001
    24  H   -0.001153  -0.000038   0.004884   0.000000   0.000000  -0.000000
    25  H   -0.000053   0.000004   0.000109  -0.000000  -0.000000  -0.000000
    26  C    0.000273   0.000001  -0.000514  -0.000000  -0.000000   0.000000
    27  H    0.001848  -0.000021   0.000173   0.000000   0.000000  -0.000000
    28  C   -0.000000   0.000000   0.000000   0.000000   0.000000   0.000000
    29  C    0.000064  -0.000001   0.000013  -0.000000  -0.000000   0.000000
    30  H    0.000000  -0.000000  -0.000000   0.000000  -0.000000  -0.000000
    31  H    0.000000   0.000000  -0.000000   0.000000   0.000000  -0.000000
    32  C    0.000004  -0.000000  -0.000001  -0.000000  -0.000000   0.000000
    33  H    0.000000   0.000000  -0.000000   0.000000  -0.000000  -0.000000
    34  H    0.000000   0.000000  -0.000000  -0.000000  -0.000000   0.000000
    35  H   -0.000001   0.000000   0.000000   0.000000   0.000000  -0.000000
    36  H   -0.000000  -0.000000   0.000000   0.000000   0.000000  -0.000000
              19         20         21         22         23         24
     1  C    0.000010  -0.000015  -0.000023  -0.000000  -0.000010  -0.006600
     2  C   -0.000000  -0.000000   0.000000   0.000000   0.000000   0.001326
     3  C    0.000127  -0.000012  -0.000168   0.000003   0.000036   0.000036
     4  O    0.000302   0.000002   0.000000  -0.000000  -0.000000  -0.000000
     5  C    0.003794  -0.008459   0.005917   0.000031  -0.000594   0.000013
     6  O   -0.037790   0.000670   0.000860  -0.000018   0.000027   0.000000
     7  C    0.000063  -0.054722  -0.001275   0.005754  -0.007229  -0.000073
     8  O   -0.000019   0.231495  -0.040689  -0.035047  -0.042721   0.000000
     9  C    0.000005  -0.006339  -0.000352  -0.000095   0.004872   0.003324
    10  O   -0.000000  -0.005473   0.000304   0.000128   0.006385   0.000294
    11  C   -0.000001   0.000057   0.000118   0.000004  -0.000550  -0.037308
    12  C    0.000000   0.000005  -0.000001  -0.000000   0.000018   0.354749
    13  H    0.000000   0.000000  -0.000000  -0.000000  -0.000000  -0.001153
    14  H   -0.000000  -0.000000  -0.000000   0.000000   0.000000  -0.000038
    15  H    0.000000  -0.000000   0.000000   0.000000   0.000000   0.004884
    16  C    0.361388  -0.000222   0.000038   0.000005   0.000000   0.000000
    17  H   -0.027622  -0.000000   0.000003  -0.000000   0.000000   0.000000
    18  H   -0.039961   0.000048  -0.000008  -0.000003   0.000001  -0.000000
    19  H    0.623560   0.000007  -0.000006  -0.000001  -0.000000  -0.000000
    20  C    0.000007   4.969597   0.355570   0.364427   0.361802  -0.000000
    21  H   -0.000006   0.355570   0.599328  -0.032237  -0.045206   0.000000
    22  H   -0.000001   0.364427  -0.032237   0.587178  -0.032911   0.000000
    23  H   -0.000000   0.361802  -0.045206  -0.032911   0.608297  -0.000000
    24  H   -0.000000  -0.000000   0.000000   0.000000  -0.000000   0.581547
    25  H   -0.000000  -0.000002  -0.000000   0.000000  -0.000002  -0.028958
    26  C    0.000000   0.000000  -0.000000  -0.000000  -0.000000  -0.038230
    27  H   -0.000000   0.000000  -0.000000  -0.000000   0.000000  -0.003971
    28  C   -0.000000  -0.000000   0.000000   0.000000  -0.000000   0.000155
    29  C    0.000000  -0.000000   0.000000   0.000000  -0.000000   0.002594
    30  H    0.000000   0.000000  -0.000000  -0.000000  -0.000000   0.000064
    31  H    0.000000   0.000000  -0.000000   0.000000   0.000010  -0.000049
    32  C    0.000000   0.000000  -0.000000  -0.000000  -0.000000  -0.000167
    33  H   -0.000000  -0.000000  -0.000000  -0.000000  -0.000000  -0.000009
    34  H    0.000000   0.000000   0.000000   0.000000  -0.000000   0.000014
    35  H   -0.000000  -0.000000   0.000000   0.000000   0.000000  -0.000002
    36  H   -0.000000  -0.000000  -0.000000   0.000000   0.000000  -0.000011
              25         26         27         28         29         30
     1  C    0.003563  -0.005472   0.000462   0.000001  -0.000233   0.000000
     2  C    0.000055  -0.000293   0.000077  -0.000002   0.000107  -0.000000
     3  C   -0.000010   0.000035  -0.000021  -0.000000   0.000006   0.000000
     4  O    0.000000   0.000001   0.000001  -0.000000   0.000000   0.000000
     5  C   -0.000029  -0.000055  -0.000002   0.000002  -0.000004  -0.000000
     6  O    0.000000  -0.000000   0.000000  -0.000000  -0.000000   0.000000
     7  C    0.000621   0.000131   0.000006  -0.000088  -0.000005  -0.000000
     8  O   -0.000003   0.000000  -0.000000   0.000000   0.000000   0.000000
     9  C   -0.008609  -0.001139  -0.000065   0.000042   0.001616   0.000019
    10  O    0.011217  -0.000144  -0.000017  -0.009993   0.000354   0.000146
    11  C   -0.042101  -0.052627  -0.001360   0.000934  -0.003046  -0.000083
    12  C    0.363995   0.291932  -0.048371  -0.013646  -0.036665   0.000384
    13  H   -0.000053   0.000273   0.001848  -0.000000   0.000064   0.000000
    14  H    0.000004   0.000001  -0.000021   0.000000  -0.000001  -0.000000
    15  H    0.000109  -0.000514   0.000173   0.000000   0.000013  -0.000000
    16  C   -0.000000  -0.000000   0.000000   0.000000  -0.000000   0.000000
    17  H   -0.000000  -0.000000   0.000000   0.000000  -0.000000  -0.000000
    18  H   -0.000000   0.000000  -0.000000   0.000000   0.000000  -0.000000
    19  H   -0.000000   0.000000  -0.000000  -0.000000   0.000000   0.000000
    20  C   -0.000002   0.000000   0.000000  -0.000000  -0.000000   0.000000
    21  H   -0.000000  -0.000000  -0.000000   0.000000   0.000000  -0.000000
    22  H    0.000000  -0.000000  -0.000000   0.000000   0.000000  -0.000000
    23  H   -0.000002  -0.000000   0.000000  -0.000000  -0.000000  -0.000000
    24  H   -0.028958  -0.038230  -0.003971   0.000155   0.002594   0.000064
    25  H    0.574378  -0.040834   0.003903   0.000520  -0.006288   0.000196
    26  C   -0.040834   5.172746   0.358969  -0.052225   0.578945  -0.002613
    27  H    0.003903   0.358969   0.586182   0.006176  -0.047403  -0.000165
    28  C    0.000520  -0.052225   0.006176   5.327086   0.316872   0.350294
    29  C   -0.006288   0.578945  -0.047403   0.316872   4.971707  -0.036867
    30  H    0.000196  -0.002613  -0.000165   0.350294  -0.036867   0.602123
    31  H    0.000018  -0.004936  -0.000058   0.354218  -0.027716  -0.022391
    32  C    0.000089  -0.041987  -0.013231  -0.080882   0.309888   0.000610
    33  H    0.000010  -0.004423   0.006523   0.004960  -0.033081  -0.000141
    34  H    0.000003  -0.001401   0.000203   0.000411  -0.040905   0.002666
    35  H   -0.000003  -0.000743   0.000265  -0.001989  -0.036079  -0.000474
    36  H   -0.000056   0.001616  -0.000160   0.359636  -0.038590  -0.038135
              31         32         33         34         35         36
     1  C   -0.000017  -0.000001   0.000000  -0.000000   0.000002   0.000001
     2  C   -0.000001   0.000000  -0.000003  -0.000000  -0.000000   0.000000
     3  C    0.000001  -0.000000   0.000000   0.000000  -0.000000  -0.000000
     4  O   -0.000000   0.000000   0.000000   0.000000  -0.000000   0.000000
     5  C   -0.000006   0.000000  -0.000000  -0.000000  -0.000000  -0.000000
     6  O    0.000000  -0.000000   0.000000  -0.000000   0.000000   0.000000
     7  C    0.000207  -0.000001   0.000000   0.000000  -0.000000   0.000002
     8  O   -0.000007   0.000000  -0.000000   0.000000  -0.000000  -0.000000
     9  C   -0.000555  -0.000038   0.000001   0.000001   0.000000  -0.000037
    10  O    0.015794  -0.000001   0.000000  -0.000000   0.000001   0.000105
    11  C   -0.000940  -0.000154  -0.000007  -0.000010   0.000043   0.000061
    12  C   -0.000464   0.006048  -0.000019  -0.000170  -0.000109   0.000394
    13  H    0.000000   0.000004   0.000000   0.000000  -0.000001  -0.000000
    14  H    0.000000  -0.000000   0.000000   0.000000   0.000000  -0.000000
    15  H   -0.000000  -0.000001  -0.000000  -0.000000   0.000000   0.000000
    16  C    0.000000  -0.000000   0.000000  -0.000000   0.000000   0.000000
    17  H    0.000000  -0.000000  -0.000000  -0.000000   0.000000   0.000000
    18  H   -0.000000   0.000000  -0.000000   0.000000  -0.000000  -0.000000
    19  H    0.000000   0.000000  -0.000000   0.000000  -0.000000  -0.000000
    20  C    0.000000   0.000000  -0.000000   0.000000  -0.000000  -0.000000
    21  H   -0.000000  -0.000000  -0.000000   0.000000   0.000000  -0.000000
    22  H    0.000000  -0.000000  -0.000000   0.000000   0.000000   0.000000
    23  H    0.000010  -0.000000  -0.000000  -0.000000   0.000000   0.000000
    24  H   -0.000049  -0.000167  -0.000009   0.000014  -0.000002  -0.000011
    25  H    0.000018   0.000089   0.000010   0.000003  -0.000003  -0.000056
    26  C   -0.004936  -0.041987  -0.004423  -0.001401  -0.000743   0.001616
    27  H   -0.000058  -0.013231   0.006523   0.000203   0.000265  -0.000160
    28  C    0.354218  -0.080882   0.004960   0.000411  -0.001989   0.359636
    29  C   -0.027716   0.309888  -0.033081  -0.040905  -0.036079  -0.038590
    30  H   -0.022391   0.000610  -0.000141   0.002666  -0.000474  -0.038135
    31  H    0.491574   0.004068  -0.000140  -0.000040  -0.000036  -0.025016
    32  C    0.004068   5.278120   0.357467   0.356141   0.355051  -0.004868
    33  H   -0.000140   0.357467   0.563009  -0.028185  -0.026080   0.000087
    34  H   -0.000040   0.356141  -0.028185   0.611601  -0.041378  -0.000876
    35  H   -0.000036   0.355051  -0.026080  -0.041378   0.593442   0.004369
    36  H   -0.025016  -0.004868   0.000087  -0.000876   0.004369   0.593835
          Atomic-Atomic Spin Densities.
               1          2          3          4          5          6
     1  C   -1.917835   0.050717   0.109988  -0.000423   0.048728  -0.000601
     2  C    0.050717   0.209758  -0.005130  -0.000894   0.000081  -0.000000
     3  C    0.109988  -0.005130   1.379527  -0.125677   0.068075  -0.007655
     4  O   -0.000423  -0.000894  -0.125677  -0.215244   0.002695   0.000069
     5  C    0.048728   0.000081   0.068075   0.002695  -1.873136   0.112585
     6  O   -0.000601  -0.000000  -0.007655   0.000069   0.112585  -0.018471
     7  C   -0.004657   0.000074  -0.026677   0.000652  -0.030570  -0.005914
     8  O   -0.000030  -0.000000   0.000116  -0.000001   0.009993  -0.000172
     9  C   -0.004729   0.000090  -0.004278   0.000046   0.006941  -0.000009
    10  O    0.000142   0.000002   0.000124  -0.000000   0.000166   0.000000
    11  C   -0.035024  -0.009321  -0.018569   0.000841  -0.005585   0.000088
    12  C    0.007209   0.000741   0.000182  -0.000004  -0.000212  -0.000000
    13  H    0.028386  -0.013562  -0.000920   0.000118  -0.000116   0.000000
    14  H    0.008696  -0.009094  -0.004772   0.001809  -0.000092   0.000001
    15  H    0.020745  -0.015196  -0.000511   0.000063  -0.000051   0.000000
    16  C   -0.000090  -0.000003  -0.001391  -0.001248   0.041645  -0.014409
    17  H   -0.000157   0.000001  -0.004316   0.004167  -0.000183  -0.000435
    18  H    0.000055   0.000000   0.000642  -0.000057  -0.009032   0.002406
    19  H    0.000003  -0.000000   0.000111  -0.000038  -0.001670  -0.000566
    20  C   -0.000009  -0.000000   0.000097  -0.000000   0.001853  -0.000151
    21  H   -0.000002   0.000000  -0.000027   0.000001  -0.001433   0.000172
    22  H    0.000000   0.000000  -0.000002   0.000000  -0.000015   0.000000
    23  H    0.000018  -0.000000   0.000011  -0.000000   0.000256  -0.000003
    24  H    0.001124   0.001196  -0.000006  -0.000001   0.000026   0.000000
    25  H   -0.000261   0.000050  -0.000008  -0.000000   0.000027   0.000000
    26  C    0.000260  -0.000337   0.000097  -0.000002   0.000021   0.000000
    27  H    0.000486  -0.000589  -0.000022   0.000000  -0.000001   0.000000
    28  C    0.000008   0.000000  -0.000001   0.000000   0.000000   0.000000
    29  C   -0.000008  -0.000019   0.000015  -0.000000  -0.000005  -0.000000
    30  H    0.000000  -0.000000   0.000000  -0.000000  -0.000000  -0.000000
    31  H    0.000009   0.000000   0.000000  -0.000000   0.000001  -0.000000
    32  C    0.000004   0.000001   0.000000  -0.000000   0.000000  -0.000000
    33  H    0.000002  -0.000001   0.000000  -0.000000   0.000000  -0.000000
    34  H    0.000000  -0.000000   0.000000  -0.000000  -0.000000  -0.000000
    35  H   -0.000001   0.000000  -0.000000   0.000000   0.000000   0.000000
    36  H   -0.000001   0.000000  -0.000000   0.000000   0.000000   0.000000
               7          8          9         10         11         12
     1  C   -0.004657  -0.000030  -0.004729   0.000142  -0.035024   0.007209
     2  C    0.000074  -0.000000   0.000090   0.000002  -0.009321   0.000741
     3  C   -0.026677   0.000116  -0.004278   0.000124  -0.018569   0.000182
     4  O    0.000652  -0.000001   0.000046  -0.000000   0.000841  -0.000004
     5  C   -0.030570   0.009993   0.006941   0.000166  -0.005585  -0.000212
     6  O   -0.005914  -0.000172  -0.000009   0.000000   0.000088  -0.000000
     7  C    2.041419  -0.112806   0.002775  -0.018139  -0.043840   0.000474
     8  O   -0.112806   0.001108   0.002518   0.001293   0.000453  -0.000000
     9  C    0.002775   0.002518  -0.932873   0.005525  -0.016012  -0.001767
    10  O   -0.018139   0.001293   0.005525   0.636093  -0.017258   0.001447
    11  C   -0.043840   0.000453  -0.016012  -0.017258   2.013295  -0.079097
    12  C    0.000474  -0.000000  -0.001767   0.001447  -0.079097   0.014212
    13  H    0.000015   0.000000  -0.000017  -0.000000   0.000287  -0.000198
    14  H   -0.000007  -0.000000  -0.000001  -0.000000   0.000674  -0.000019
    15  H    0.000009  -0.000000  -0.000022  -0.000001  -0.001120   0.000395
    16  C    0.000368  -0.000024  -0.000038  -0.000000   0.000036  -0.000000
    17  H    0.000090  -0.000001   0.000009  -0.000000   0.000006  -0.000000
    18  H    0.000503  -0.000011  -0.000004   0.000000  -0.000017   0.000000
    19  H   -0.000031   0.000003   0.000001   0.000000  -0.000000   0.000000
    20  C   -0.053529   0.017721   0.001751  -0.000218   0.000212   0.000005
    21  H    0.008094  -0.001600   0.000115  -0.000079  -0.000025  -0.000000
    22  H    0.002767   0.000628  -0.000087  -0.000032  -0.000003   0.000000
    23  H   -0.002458   0.000840   0.000567   0.000329  -0.000106  -0.000003
    24  H   -0.000021  -0.000000  -0.000592   0.000112   0.005601  -0.015213
    25  H   -0.000056  -0.000000   0.002347  -0.000823  -0.003057  -0.003965
    26  C    0.000308  -0.000002   0.001402   0.000326   0.013982   0.138554
    27  H   -0.000001  -0.000000  -0.000084  -0.000005   0.000850  -0.002172
    28  C   -0.000009  -0.000000  -0.000435   0.000353   0.000944  -0.001175
    29  C    0.000015   0.000000   0.000002   0.000142  -0.002669   0.004665
    30  H    0.000000   0.000000   0.000028   0.000041  -0.000083   0.000095
    31  H    0.000014   0.000001   0.000250  -0.002614  -0.000030  -0.000716
    32  C    0.000000  -0.000000   0.000004   0.000004  -0.000214  -0.000123
    33  H   -0.000000   0.000000  -0.000000   0.000000  -0.000001  -0.000011
    34  H    0.000000   0.000000   0.000000   0.000000  -0.000004   0.000006
    35  H   -0.000000   0.000000  -0.000001  -0.000001   0.000035  -0.000014
    36  H   -0.000001  -0.000000  -0.000035  -0.000035   0.000035   0.000019
              13         14         15         16         17         18
     1  C    0.028386   0.008696   0.020745  -0.000090  -0.000157   0.000055
     2  C   -0.013562  -0.009094  -0.015196  -0.000003   0.000001   0.000000
     3  C   -0.000920  -0.004772  -0.000511  -0.001391  -0.004316   0.000642
     4  O    0.000118   0.001809   0.000063  -0.001248   0.004167  -0.000057
     5  C   -0.000116  -0.000092  -0.000051   0.041645  -0.000183  -0.009032
     6  O    0.000000   0.000001   0.000000  -0.014409  -0.000435   0.002406
     7  C    0.000015  -0.000007   0.000009   0.000368   0.000090   0.000503
     8  O    0.000000  -0.000000  -0.000000  -0.000024  -0.000001  -0.000011
     9  C   -0.000017  -0.000001  -0.000022  -0.000038   0.000009  -0.000004
    10  O   -0.000000  -0.000000  -0.000001  -0.000000  -0.000000   0.000000
    11  C    0.000287   0.000674  -0.001120   0.000036   0.000006  -0.000017
    12  C   -0.000198  -0.000019   0.000395  -0.000000  -0.000000   0.000000
    13  H   -0.091999   0.004261   0.014734   0.000000   0.000002  -0.000000
    14  H    0.004261  -0.014460  -0.000251  -0.000000  -0.000002   0.000000
    15  H    0.014734  -0.000251  -0.058971  -0.000000  -0.000000   0.000000
    16  C    0.000000  -0.000000  -0.000000  -0.064202  -0.001581   0.008763
    17  H    0.000002  -0.000002  -0.000000  -0.001581   0.007219  -0.000420
    18  H   -0.000000   0.000000   0.000000   0.008763  -0.000420  -0.002826
    19  H   -0.000000   0.000000   0.000000   0.004999  -0.000758  -0.002487
    20  C    0.000000  -0.000000  -0.000000   0.000052   0.000002  -0.000007
    21  H   -0.000000   0.000000   0.000000  -0.000016  -0.000001   0.000001
    22  H   -0.000000   0.000000   0.000000  -0.000001  -0.000000   0.000000
    23  H    0.000000  -0.000000  -0.000000   0.000001   0.000000  -0.000000
    24  H   -0.000191  -0.000002  -0.000098   0.000000   0.000000  -0.000000
    25  H    0.000022  -0.000001  -0.000062   0.000000   0.000000  -0.000000
    26  C   -0.000678  -0.000007   0.000084   0.000000  -0.000000  -0.000000
    27  H   -0.000496   0.000009   0.000033   0.000000   0.000000  -0.000000
    28  C    0.000000  -0.000000  -0.000000   0.000000   0.000000  -0.000000
    29  C    0.000033  -0.000000  -0.000008  -0.000000  -0.000000   0.000000
    30  H   -0.000000   0.000000   0.000000  -0.000000  -0.000000   0.000000
    31  H   -0.000000   0.000000   0.000000  -0.000000  -0.000000   0.000000
    32  C   -0.000005   0.000000   0.000000  -0.000000  -0.000000   0.000000
    33  H   -0.000000   0.000000   0.000000  -0.000000  -0.000000   0.000000
    34  H   -0.000000  -0.000000   0.000000  -0.000000  -0.000000   0.000000
    35  H    0.000000   0.000000  -0.000000   0.000000   0.000000  -0.000000
    36  H    0.000000   0.000000  -0.000000   0.000000   0.000000  -0.000000
              19         20         21         22         23         24
     1  C    0.000003  -0.000009  -0.000002   0.000000   0.000018   0.001124
     2  C   -0.000000  -0.000000   0.000000   0.000000  -0.000000   0.001196
     3  C    0.000111   0.000097  -0.000027  -0.000002   0.000011  -0.000006
     4  O   -0.000038  -0.000000   0.000001   0.000000  -0.000000  -0.000001
     5  C   -0.001670   0.001853  -0.001433  -0.000015   0.000256   0.000026
     6  O   -0.000566  -0.000151   0.000172   0.000000  -0.000003   0.000000
     7  C   -0.000031  -0.053529   0.008094   0.002767  -0.002458  -0.000021
     8  O    0.000003   0.017721  -0.001600   0.000628   0.000840  -0.000000
     9  C    0.000001   0.001751   0.000115  -0.000087   0.000567  -0.000592
    10  O    0.000000  -0.000218  -0.000079  -0.000032   0.000329   0.000112
    11  C   -0.000000   0.000212  -0.000025  -0.000003  -0.000106   0.005601
    12  C    0.000000   0.000005  -0.000000   0.000000  -0.000003  -0.015213
    13  H   -0.000000   0.000000  -0.000000  -0.000000   0.000000  -0.000191
    14  H    0.000000  -0.000000   0.000000   0.000000  -0.000000  -0.000002
    15  H    0.000000  -0.000000   0.000000   0.000000  -0.000000  -0.000098
    16  C    0.004999   0.000052  -0.000016  -0.000001   0.000001   0.000000
    17  H   -0.000758   0.000002  -0.000001  -0.000000   0.000000   0.000000
    18  H   -0.002487  -0.000007   0.000001   0.000000  -0.000000  -0.000000
    19  H   -0.001229  -0.000003   0.000001   0.000000  -0.000000  -0.000000
    20  C   -0.000003   0.079806  -0.005715  -0.005954   0.000493  -0.000000
    21  H    0.000001  -0.005715  -0.002518   0.002684  -0.000428   0.000000
    22  H    0.000000  -0.005954   0.002684   0.004908  -0.000319   0.000000
    23  H   -0.000000   0.000493  -0.000428  -0.000319  -0.003306   0.000000
    24  H   -0.000000  -0.000000   0.000000   0.000000   0.000000  -0.018986
    25  H   -0.000000  -0.000002   0.000000  -0.000000   0.000010   0.003395
    26  C   -0.000000   0.000000  -0.000000  -0.000000   0.000000   0.010257
    27  H   -0.000000   0.000000   0.000000  -0.000000   0.000000  -0.000579
    28  C   -0.000000   0.000000  -0.000000  -0.000000   0.000000   0.000006
    29  C    0.000000   0.000000   0.000000   0.000000  -0.000000   0.000597
    30  H    0.000000   0.000000   0.000000   0.000000  -0.000000  -0.000008
    31  H    0.000000  -0.000001   0.000000   0.000000   0.000001  -0.000056
    32  C    0.000000   0.000000  -0.000000  -0.000000  -0.000000  -0.000033
    33  H    0.000000  -0.000000   0.000000   0.000000  -0.000000   0.000001
    34  H    0.000000   0.000000  -0.000000  -0.000000  -0.000000  -0.000002
    35  H   -0.000000  -0.000000   0.000000   0.000000   0.000000   0.000002
    36  H   -0.000000  -0.000000   0.000000   0.000000   0.000000   0.000002
              25         26         27         28         29         30
     1  C   -0.000261   0.000260   0.000486   0.000008  -0.000008   0.000000
     2  C    0.000050  -0.000337  -0.000589   0.000000  -0.000019  -0.000000
     3  C   -0.000008   0.000097  -0.000022  -0.000001   0.000015   0.000000
     4  O   -0.000000  -0.000002   0.000000   0.000000  -0.000000  -0.000000
     5  C    0.000027   0.000021  -0.000001   0.000000  -0.000005  -0.000000
     6  O    0.000000   0.000000   0.000000   0.000000  -0.000000  -0.000000
     7  C   -0.000056   0.000308  -0.000001  -0.000009   0.000015   0.000000
     8  O   -0.000000  -0.000002  -0.000000  -0.000000   0.000000   0.000000
     9  C    0.002347   0.001402  -0.000084  -0.000435   0.000002   0.000028
    10  O   -0.000823   0.000326  -0.000005   0.000353   0.000142   0.000041
    11  C   -0.003057   0.013982   0.000850   0.000944  -0.002669  -0.000083
    12  C   -0.003965   0.138554  -0.002172  -0.001175   0.004665   0.000095
    13  H    0.000022  -0.000678  -0.000496   0.000000   0.000033  -0.000000
    14  H   -0.000001  -0.000007   0.000009  -0.000000  -0.000000   0.000000
    15  H   -0.000062   0.000084   0.000033  -0.000000  -0.000008   0.000000
    16  C    0.000000   0.000000   0.000000   0.000000  -0.000000  -0.000000
    17  H    0.000000  -0.000000   0.000000   0.000000  -0.000000  -0.000000
    18  H   -0.000000  -0.000000  -0.000000  -0.000000   0.000000   0.000000
    19  H   -0.000000  -0.000000  -0.000000  -0.000000   0.000000   0.000000
    20  C   -0.000002   0.000000   0.000000   0.000000   0.000000   0.000000
    21  H    0.000000  -0.000000   0.000000  -0.000000   0.000000   0.000000
    22  H   -0.000000  -0.000000  -0.000000  -0.000000   0.000000   0.000000
    23  H    0.000010   0.000000   0.000000   0.000000  -0.000000  -0.000000
    24  H    0.003395   0.010257  -0.000579   0.000006   0.000597  -0.000008
    25  H    0.008327  -0.002460   0.000557   0.001483  -0.001599  -0.000311
    26  C   -0.002460  -2.576357   0.013306   0.004049   0.022157   0.000855
    27  H    0.000557   0.013306   0.165213   0.000212  -0.004081  -0.000030
    28  C    0.001483   0.004049   0.000212  -0.277902  -0.083582   0.019459
    29  C   -0.001599   0.022157  -0.004081  -0.083582   2.657449  -0.049511
    30  H   -0.000311   0.000855  -0.000030   0.019459  -0.049511   0.150287
    31  H   -0.000614   0.002714  -0.000008   0.016752  -0.009267  -0.006980
    32  C   -0.000051  -0.001279  -0.000608   0.005758  -0.048812   0.001024
    33  H    0.000000   0.003297  -0.000304  -0.000255  -0.008099  -0.000006
    34  H   -0.000006   0.000972  -0.000028   0.002203  -0.044551   0.004931
    35  H    0.000006   0.001158   0.000149   0.001351  -0.044683  -0.001602
    36  H    0.000041  -0.000125  -0.000001   0.017253  -0.028078  -0.022808
              31         32         33         34         35         36
     1  C    0.000009   0.000004   0.000002   0.000000  -0.000001  -0.000001
     2  C    0.000000   0.000001  -0.000001  -0.000000   0.000000   0.000000
     3  C    0.000000   0.000000   0.000000   0.000000  -0.000000  -0.000000
     4  O   -0.000000  -0.000000  -0.000000  -0.000000   0.000000   0.000000
     5  C    0.000001   0.000000   0.000000  -0.000000   0.000000   0.000000
     6  O   -0.000000  -0.000000  -0.000000  -0.000000   0.000000   0.000000
     7  C    0.000014   0.000000  -0.000000   0.000000  -0.000000  -0.000001
     8  O    0.000001  -0.000000   0.000000   0.000000   0.000000  -0.000000
     9  C    0.000250   0.000004  -0.000000   0.000000  -0.000001  -0.000035
    10  O   -0.002614   0.000004   0.000000   0.000000  -0.000001  -0.000035
    11  C   -0.000030  -0.000214  -0.000001  -0.000004   0.000035   0.000035
    12  C   -0.000716  -0.000123  -0.000011   0.000006  -0.000014   0.000019
    13  H   -0.000000  -0.000005  -0.000000  -0.000000   0.000000   0.000000
    14  H    0.000000   0.000000   0.000000  -0.000000   0.000000   0.000000
    15  H    0.000000   0.000000   0.000000   0.000000  -0.000000  -0.000000
    16  C   -0.000000  -0.000000  -0.000000  -0.000000   0.000000   0.000000
    17  H   -0.000000  -0.000000  -0.000000  -0.000000   0.000000   0.000000
    18  H    0.000000   0.000000   0.000000   0.000000  -0.000000  -0.000000
    19  H    0.000000   0.000000   0.000000   0.000000  -0.000000  -0.000000
    20  C   -0.000001   0.000000  -0.000000   0.000000  -0.000000  -0.000000
    21  H    0.000000  -0.000000   0.000000  -0.000000   0.000000   0.000000
    22  H    0.000000  -0.000000   0.000000  -0.000000   0.000000   0.000000
    23  H    0.000001  -0.000000  -0.000000  -0.000000   0.000000   0.000000
    24  H   -0.000056  -0.000033   0.000001  -0.000002   0.000002   0.000002
    25  H   -0.000614  -0.000051   0.000000  -0.000006   0.000006   0.000041
    26  C    0.002714  -0.001279   0.003297   0.000972   0.001158  -0.000125
    27  H   -0.000008  -0.000608  -0.000304  -0.000028   0.000149  -0.000001
    28  C    0.016752   0.005758  -0.000255   0.002203   0.001351   0.017253
    29  C   -0.009267  -0.048812  -0.008099  -0.044551  -0.044683  -0.028078
    30  H   -0.006980   0.001024  -0.000006   0.004931  -0.001602  -0.022808
    31  H    0.015204  -0.000084  -0.000002  -0.000100   0.000120   0.001773
    32  C   -0.000084  -0.304750   0.011912   0.017801   0.018052   0.001661
    33  H   -0.000002   0.011912   0.011484  -0.002382  -0.002310  -0.000006
    34  H   -0.000100   0.017801  -0.002382   0.132720  -0.028818  -0.002999
    35  H    0.000120   0.018052  -0.002310  -0.028818   0.134090   0.005790
    36  H    0.001773   0.001661  -0.000006  -0.002999   0.005790   0.081118
 Mulliken charges and spin densities:
               1          2
     1  C   -0.060114  -1.687251
     2  C   -0.557767   0.208564
     3  C    0.368004   1.359022
     4  O   -0.894098  -0.333128
     5  C    0.179053  -1.629006
     6  O   -0.548819   0.066933
     7  C    0.193556   1.758861
     8  O   -0.533750  -0.079974
     9  C    0.373341  -0.936613
    10  O   -0.385063   0.606892
    11  C    0.007180   1.805303
    12  C   -0.432500   0.063316
    13  H    0.132021  -0.060324
    14  H    0.230361  -0.013258
    15  H    0.118900  -0.040229
    16  C   -0.209330  -0.027140
    17  H    0.226804   0.003641
    18  H    0.107006  -0.002491
    19  H    0.116142  -0.001665
    20  C   -0.208437   0.036403
    21  H    0.157828  -0.000778
    22  H    0.142782   0.004574
    23  H    0.147775  -0.004098
    24  H    0.167573  -0.013471
    25  H    0.168266   0.002986
    26  C   -0.157016  -2.367446
    27  H    0.150056   0.171805
    28  C   -0.562481  -0.293527
    29  C    0.124716   2.360104
    30  H    0.144367   0.095380
    31  H    0.216479   0.016365
    32  C   -0.526159  -0.299740
    33  H    0.160030   0.013320
    34  H    0.141924   0.079744
    35  H    0.153722   0.083322
    36  H    0.147644   0.053603
 Sum of Mulliken charges =  -1.00000   1.00000
 Mulliken charges and spin densities with hydrogens summed into heavy atoms:
               1          2
     1  C   -0.060114  -1.687251
     2  C   -0.076484   0.094753
     3  C    0.368004   1.359022
     4  O   -0.894098  -0.333128
     5  C    0.179053  -1.629006
     6  O   -0.548819   0.066933
     7  C    0.193556   1.758861
     8  O   -0.533750  -0.079974
     9  C    0.373341  -0.936613
    10  O   -0.385063   0.606892
    11  C    0.007180   1.805303
    12  C   -0.096661   0.052831
    16  C    0.240622  -0.027655
    20  C    0.239949   0.036102
    26  C   -0.006959  -2.195640
    28  C   -0.053990  -0.128179
    29  C    0.124716   2.360104
    32  C   -0.070482  -0.123354
 Electronic spatial extent (au):  <R**2>=           5237.2757
 Charge=             -1.0000 electrons
 Dipole moment (field-independent basis, Debye):
    X=              7.9353    Y=              6.3462    Z=             -0.0916  Tot=             10.1613
 Quadrupole moment (field-independent basis, Debye-Ang):
   XX=           -143.2892   YY=           -135.7672   ZZ=           -110.5834
   XY=            -18.1508   XZ=              0.0529   YZ=             -4.7725
 Traceless Quadrupole moment (field-independent basis, Debye-Ang):
   XX=            -13.4093   YY=             -5.8872   ZZ=             19.2966
   XY=            -18.1508   XZ=              0.0529   YZ=             -4.7725
 Octapole moment (field-independent basis, Debye-Ang**2):
  XXX=             15.9221  YYY=             68.8282  ZZZ=              3.7076  XYY=             35.9898
  XXY=             46.2172  XXZ=              6.0543  XZZ=            -13.5006  YZZ=              6.2415
  YYZ=             -1.9343  XYZ=             13.6134
 Hexadecapole moment (field-independent basis, Debye-Ang**3):
 XXXX=          -4851.9975 YYYY=          -2058.8872 ZZZZ=           -686.0401 XXXY=            -74.8018
 XXXZ=            -54.9121 YYYX=           -169.8058 YYYZ=            -32.2913 ZZZX=            -23.6362
 ZZZY=             -8.7196 XXYY=          -1193.4807 XXZZ=           -865.8346 YYZZ=           -435.1266
 XXYZ=            -38.4953 YYXZ=             12.1858 ZZXY=              8.1073
 N-N= 1.356346447763D+03 E-N=-4.701867432178D+03  KE= 8.407406967784D+02
                          Isotropic Fermi Contact Couplings
        Atom                 a.u.       MegaHertz       Gauss      10(-4) cm-1
     1  C(13)             -0.32356    -363.73964    -129.79135    -121.33048
     2  C(13)              0.07207      81.02236      28.91079      27.02615
     3  C(13)              0.28039     315.21672     112.47717     105.14498
     4  O(17)             -0.06393      38.75221      13.82775      12.92634
     5  C(13)             -0.33779    -379.74181    -135.50132    -126.66823
     6  O(17)             -0.03086      18.71016       6.67625       6.24104
     7  C(13)              0.33697     378.81709     135.17136     126.35978
     8  O(17)              0.03412     -20.68418      -7.38063      -6.89950
     9  C(13)             -0.23057    -259.20043     -92.48916     -86.45996
    10  O(17)              0.08547     -51.80909     -18.48677     -17.28165
    11  C(13)              0.25623     288.04716     102.78239      96.08219
    12  C(13)              0.01379      15.50125       5.53123       5.17066
    13  H(1)              -0.02593    -115.89190     -41.35311     -38.65738
    14  H(1)              -0.00516     -23.04891      -8.22442      -7.68829
    15  H(1)              -0.01801     -80.51542     -28.72990     -26.85705
    16  C(13)             -0.04995     -56.15605     -20.03787     -18.73164
    17  H(1)               0.00068       3.03676       1.08359       1.01296
    18  H(1)               0.00131       5.86109       2.09138       1.95505
    19  H(1)               0.00033       1.48913       0.53136       0.49672
    20  C(13)              0.06220      69.92804      24.95206      23.32548
    21  H(1)              -0.00179      -7.99472      -2.85271      -2.66675
    22  H(1)               0.00038       1.70883       0.60975       0.57000
    23  H(1)              -0.00121      -5.42353      -1.93525      -1.80909
    24  H(1)              -0.00834     -37.27018     -13.29893     -12.43199
    25  H(1)               0.00072       3.21781       1.14820       1.07335
    26  C(13)             -0.34519    -388.05606    -138.46805    -129.44157
    27  H(1)               0.05015     224.15368      79.98361      74.76962
    28  C(13)             -0.09536    -107.19939     -38.25141     -35.75787
    29  C(13)              0.42395     476.60040     170.06288     158.97678
    30  H(1)               0.04166     186.21416      66.44584      62.11436
    31  H(1)               0.00869      38.84484      13.86081      12.95725
    32  C(13)             -0.10088    -113.40830     -40.46690     -37.82894
    33  H(1)               0.00465      20.79669       7.42078       6.93703
    34  H(1)               0.03353     149.86259      53.47470      49.98878
    35  H(1)               0.03476     155.37519      55.44173      51.82758
    36  H(1)               0.02163      96.66946      34.49407      32.24546
 --------------------------------------------------------
       Center         ----  Spin Dipole Couplings  ----
                      3XX-RR        3YY-RR        3ZZ-RR
 --------------------------------------------------------
     1   Atom        0.387656      0.577263     -0.964918
     2   Atom       -0.015484      0.026331     -0.010847
     3   Atom       -0.320827     -0.440414      0.761241
     4   Atom        0.315756      0.386655     -0.702412
     5   Atom        0.488749      0.599596     -1.088346
     6   Atom        0.134163      0.017255     -0.151418
     7   Atom       -0.462405     -0.716882      1.179287
     8   Atom        0.014162     -0.210043      0.195881
     9   Atom        0.147631      0.252770     -0.400401
    10   Atom       -0.625653     -0.951692      1.577345
    11   Atom       -0.580077     -0.641719      1.221796
    12   Atom       -0.025023     -0.001255      0.026278
    13   Atom       -0.000961     -0.006509      0.007470
    14   Atom        0.004663     -0.005084      0.000421
    15   Atom       -0.005448      0.002070      0.003378
    16   Atom        0.011191      0.006926     -0.018117
    17   Atom        0.005345     -0.006474      0.001129
    18   Atom        0.004483      0.006558     -0.011041
    19   Atom       -0.003763      0.003425      0.000337
    20   Atom       -0.025063      0.019943      0.005120
    21   Atom        0.007536     -0.007154     -0.000381
    22   Atom       -0.001397      0.006312     -0.004915
    23   Atom        0.000600      0.003931     -0.004531
    24   Atom        0.005198      0.012026     -0.017224
    25   Atom        0.020268     -0.015536     -0.004732
    26   Atom       -0.601204      0.769662     -0.168458
    27   Atom        0.053633     -0.099171      0.045538
    28   Atom        0.019892     -0.029021      0.009129
    29   Atom        0.590867     -0.852459      0.261592
    30   Atom       -0.010569      0.015597     -0.005028
    31   Atom        0.009317     -0.004224     -0.005093
    32   Atom       -0.008446      0.025245     -0.016798
    33   Atom       -0.004941      0.008752     -0.003811
    34   Atom        0.002682     -0.005911      0.003229
    35   Atom       -0.000822     -0.009712      0.010534
    36   Atom       -0.002551      0.019970     -0.017419
 --------------------------------------------------------
                        XY            XZ            YZ
 --------------------------------------------------------
     1   Atom        0.078069     -0.521684      0.169259
     2   Atom       -0.015856     -0.000334      0.004983
     3   Atom       -0.068780      0.394502     -0.136849
     4   Atom       -0.029652     -0.425670      0.173588
     5   Atom        0.073895     -0.540212      0.187686
     6   Atom       -0.068748     -0.233393     -0.072767
     7   Atom       -0.094781      0.683412     -0.253453
     8   Atom        0.130590      0.132321      0.041921
     9   Atom        0.054625     -0.223035      0.038033
    10   Atom        0.010410      0.998028     -0.189556
    11   Atom       -0.061765      0.625357     -0.165975
    12   Atom       -0.007626      0.048233      0.006047
    13   Atom       -0.000393      0.005135     -0.002963
    14   Atom        0.000495     -0.000496     -0.001339
    15   Atom        0.003155     -0.001401     -0.005032
    16   Atom       -0.012451      0.025343      0.025450
    17   Atom       -0.000421      0.002526      0.003010
    18   Atom        0.002034      0.000671     -0.003263
    19   Atom        0.001116      0.003746     -0.000027
    20   Atom       -0.017734      0.010568     -0.047189
    21   Atom       -0.008828      0.012109     -0.002390
    22   Atom       -0.007745     -0.000118      0.000297
    23   Atom       -0.003478     -0.001349     -0.011251
    24   Atom       -0.013802     -0.021151      0.007386
    25   Atom        0.012463     -0.009079      0.015537
    26   Atom        0.375837      1.360874     -0.288192
    27   Atom        0.022550      0.060444      0.064218
    28   Atom       -0.016921      0.009493     -0.003987
    29   Atom       -0.367843     -1.350452      0.262850
    30   Atom        0.003528      0.001327     -0.010972
    31   Atom       -0.009417      0.003477     -0.011740
    32   Atom       -0.003211     -0.014852     -0.007638
    33   Atom       -0.010113     -0.004650     -0.012774
    34   Atom       -0.012780      0.015764     -0.005189
    35   Atom       -0.002642      0.014421     -0.014006
    36   Atom        0.002080      0.001554     -0.000129
 --------------------------------------------------------


 ---------------------------------------------------------------------------------
              Anisotropic Spin Dipole Couplings in Principal Axis System
 ---------------------------------------------------------------------------------

       Atom             a.u.   MegaHertz   Gauss  10(-4) cm-1        Axes

              Baa    -1.1625  -155.998   -55.664   -52.035  0.3220 -0.1060  0.9408
     1 C(13)  Bbb     0.5564    74.668    26.643    24.906  0.8409 -0.4246 -0.3356
              Bcc     0.6061    81.330    29.020    27.129  0.4351  0.8991 -0.0476
 
              Baa    -0.0210    -2.816    -1.005    -0.939  0.9359  0.3273 -0.1301
     2 C(13)  Bbb    -0.0112    -1.506    -0.537    -0.502  0.1592 -0.0635  0.9852
              Bcc     0.0322     4.322     1.542     1.442 -0.3142  0.9428  0.1116
 
              Baa    -0.4766   -63.957   -22.821   -21.334  0.6374  0.7613 -0.1190
     3 C(13)  Bbb    -0.4302   -57.730   -20.599   -19.257  0.7056 -0.6387 -0.3070
              Bcc     0.9068   121.687    43.421    40.590  0.3097 -0.1117  0.9443
 
              Baa    -0.8756    63.355    22.607    21.133  0.3313 -0.1209  0.9357
     4 O(17)  Bbb     0.3454   -24.992    -8.918    -8.336  0.5703  0.8158 -0.0965
              Bcc     0.5302   -38.363   -13.689   -12.797  0.7517 -0.5656 -0.3392
 
              Baa    -1.2772  -171.388   -61.156   -57.169  0.2949 -0.1066  0.9496
     5 C(13)  Bbb     0.6156    82.608    29.477    27.555 -0.3021  0.9324  0.1985
              Bcc     0.6616    88.780    31.679    29.614  0.9065  0.3454 -0.2428
 
              Baa    -0.3110    22.507     8.031     7.507  0.4792  0.2844  0.8303
     6 O(17)  Bbb     0.0435    -3.148    -1.123    -1.050 -0.0473  0.9530 -0.2991
              Bcc     0.2675   -19.358    -6.908    -6.457  0.8764 -0.1040 -0.4702
 
              Baa    -0.7507  -100.739   -35.946   -33.603  0.1076  0.9899  0.0919
     7 C(13)  Bbb    -0.7095   -95.203   -33.971   -31.756  0.9351 -0.0694 -0.3476
              Bcc     1.4602   195.941    69.917    65.359  0.3378 -0.1233  0.9331
 
              Baa    -0.2708    19.592     6.991     6.535 -0.4322  0.9008  0.0416
     8 O(17)  Bbb    -0.0152     1.101     0.393     0.367  0.7464  0.3833 -0.5440
              Bcc     0.2860   -20.693    -7.384    -6.903  0.5060  0.2040  0.8381
 
              Baa    -0.4837   -64.906   -23.160   -21.650  0.3379 -0.0735  0.9383
     9 C(13)  Bbb     0.2004    26.898     9.598     8.972  0.7619 -0.5639 -0.3185
              Bcc     0.2832    38.009    13.562    12.678  0.5525  0.8226 -0.1345
 
              Baa    -1.0677    77.261    27.569    25.771  0.7396 -0.5914 -0.3214
    10 O(17)  Bbb    -0.9048    65.467    23.360    21.838  0.5701  0.8042 -0.1678
              Bcc     1.9725  -142.728   -50.929   -47.609  0.3578 -0.0591  0.9319
 
              Baa    -0.7766  -104.208   -37.184   -34.760  0.9533  0.0774 -0.2919
    11 C(13)  Bbb    -0.6561   -88.038   -31.414   -29.366 -0.0488  0.9934  0.1040
              Bcc     1.4326   192.247    68.598    64.127  0.2980 -0.0849  0.9508
 
              Baa    -0.0557    -7.476    -2.668    -2.494  0.8430  0.1745 -0.5088
    12 C(13)  Bbb     0.0004     0.057     0.020     0.019 -0.1612  0.9844  0.0706
              Bcc     0.0553     7.419     2.647     2.475  0.5132  0.0225  0.8580
 
              Baa    -0.0072    -3.842    -1.371    -1.282 -0.1391  0.9601  0.2426
    13 H(1)   Bbb    -0.0032    -1.696    -0.605    -0.566  0.9007  0.2245 -0.3719
              Bcc     0.0104     5.538     1.976     1.847  0.4115 -0.1668  0.8960
 
              Baa    -0.0054    -2.884    -1.029    -0.962 -0.0370  0.9746  0.2208
    14 H(1)   Bbb     0.0006     0.343     0.122     0.114  0.1454 -0.2133  0.9661
              Bcc     0.0048     2.542     0.907     0.848  0.9887  0.0679 -0.1338
 
              Baa    -0.0066    -3.532    -1.260    -1.178  0.9277 -0.3692 -0.0558
    15 H(1)   Bbb    -0.0019    -1.010    -0.360    -0.337  0.3003  0.6488  0.6992
              Bcc     0.0085     4.542     1.621     1.515 -0.2219 -0.6654  0.7127
 
              Baa    -0.0474    -6.367    -2.272    -2.124 -0.4327 -0.4616  0.7744
    16 C(13)  Bbb     0.0210     2.820     1.006     0.941 -0.5099  0.8337  0.2120
              Bcc     0.0264     3.547     1.266     1.183  0.7435  0.3032  0.5961
 
              Baa    -0.0076    -4.077    -1.455    -1.360  0.0979  0.9323 -0.3481
    17 H(1)   Bbb     0.0010     0.559     0.199     0.186 -0.4479  0.3537  0.8211
              Bcc     0.0066     3.519     1.256     1.174  0.8887  0.0756  0.4523
 
              Baa    -0.0117    -6.238    -2.226    -2.081 -0.0637  0.1825  0.9811
    18 H(1)   Bbb     0.0036     1.900     0.678     0.634  0.8836 -0.4468  0.1405
              Bcc     0.0081     4.338     1.548     1.447  0.4640  0.8758 -0.1328
 
              Baa    -0.0061    -3.246    -1.158    -1.083  0.8590 -0.1023 -0.5016
    19 H(1)   Bbb     0.0023     1.235     0.441     0.412  0.4242 -0.4065  0.8093
              Bcc     0.0038     2.011     0.718     0.671  0.2867  0.9079  0.3058
 
              Baa    -0.0369    -4.946    -1.765    -1.650  0.4192  0.6540  0.6297
    20 C(13)  Bbb    -0.0280    -3.764    -1.343    -1.256  0.8806 -0.1242 -0.4573
              Bcc     0.0649     8.710     3.108     2.905 -0.2209  0.7462 -0.6280
 
              Baa    -0.0127    -6.764    -2.413    -2.256  0.5608  0.7178 -0.4127
    21 H(1)   Bbb    -0.0065    -3.447    -1.230    -1.150 -0.2498  0.6219  0.7422
              Bcc     0.0191    10.210     3.643     3.406  0.7894 -0.3131  0.5281
 
              Baa    -0.0062    -3.306    -1.180    -1.103  0.8489  0.5267 -0.0438
    22 H(1)   Bbb    -0.0049    -2.624    -0.936    -0.875  0.0476  0.0064  0.9988
              Bcc     0.0111     5.930     2.116     1.978 -0.5264  0.8500  0.0196
 
              Baa    -0.0130    -6.952    -2.481    -2.319  0.2238  0.5702  0.7904
    23 H(1)   Bbb     0.0009     0.489     0.174     0.163  0.9570  0.0252 -0.2891
              Bcc     0.0121     6.463     2.306     2.156 -0.1848  0.8211 -0.5401
 
              Baa    -0.0300   -15.990    -5.706    -5.334  0.5214  0.0213  0.8530
    24 H(1)   Bbb    -0.0009    -0.492    -0.175    -0.164  0.5362  0.7695 -0.3470
              Bcc     0.0309    16.481     5.881     5.498  0.6638 -0.6383 -0.3898
 
              Baa    -0.0312   -16.648    -5.940    -5.553 -0.2870  0.7799 -0.5562
    25 H(1)   Bbb     0.0063     3.369     1.202     1.124  0.0084  0.5827  0.8127
              Bcc     0.0249    13.279     4.738     4.430  0.9579  0.2286 -0.1737
 
              Baa    -1.8483  -248.018   -88.499   -82.730  0.7495 -0.1778 -0.6377
    26 C(13)  Bbb     0.8509   114.185    40.744    38.088  0.0237  0.9698 -0.2426
              Bcc     0.9973   133.832    47.755    44.642  0.6616  0.1667  0.7311
 
              Baa    -0.1236   -65.926   -23.524   -21.990  0.0024  0.9346 -0.3558
    27 H(1)   Bbb    -0.0032    -1.731    -0.618    -0.577  0.7501 -0.2370 -0.6174
              Bcc     0.1268    67.657    24.142    22.568  0.6613  0.2654  0.7016
 
              Baa    -0.0343    -4.606    -1.644    -1.537  0.2941  0.9555  0.0234
    28 C(13)  Bbb     0.0042     0.558     0.199     0.186 -0.4251  0.1088  0.8986
              Bcc     0.0302     4.049     1.445     1.351  0.8561 -0.2742  0.4382
 
              Baa    -0.9772  -131.129   -46.790   -43.740  0.5684  0.6701  0.4774
    29 C(13)  Bbb    -0.8840  -118.628   -42.329   -39.570 -0.3588  0.7240 -0.5891
              Bcc     1.8612   249.756    89.119    83.310  0.7404 -0.1635 -0.6520
 
              Baa    -0.0129    -6.909    -2.465    -2.305  0.7701 -0.3096 -0.5578
    30 H(1)   Bbb    -0.0076    -4.071    -1.453    -1.358  0.6319  0.2504  0.7334
              Bcc     0.0206    10.980     3.918     3.663  0.0873  0.9173 -0.3885
 
              Baa    -0.0171    -9.132    -3.258    -3.046  0.1727  0.7292  0.6622
    31 H(1)   Bbb    -0.0006    -0.330    -0.118    -0.110 -0.6340 -0.4322  0.6413
              Bcc     0.0177     9.462     3.376     3.156  0.7538 -0.5306  0.3877
 
              Baa    -0.0292    -3.923    -1.400    -1.309  0.5899  0.1461  0.7941
    32 C(13)  Bbb     0.0026     0.354     0.126     0.118  0.8072 -0.0828 -0.5844
              Bcc     0.0266     3.570     1.274     1.191 -0.0197  0.9858 -0.1668
 
              Baa    -0.0186    -9.931    -3.544    -3.313  0.5901  0.5102  0.6257
    33 H(1)   Bbb     0.0001     0.046     0.016     0.015  0.7558 -0.0767 -0.6503
              Bcc     0.0185     9.885     3.527     3.297 -0.2838  0.8567 -0.4308
 
              Baa    -0.0172    -9.179    -3.275    -3.062  0.6943  0.6109 -0.3805
    34 H(1)   Bbb    -0.0070    -3.729    -1.331    -1.244 -0.2235  0.6855  0.6929
              Bcc     0.0242    12.908     4.606     4.306  0.6841 -0.3960  0.6125
 
              Baa    -0.0183    -9.786    -3.492    -3.264 -0.3272  0.7757  0.5397
    35 H(1)   Bbb    -0.0070    -3.739    -1.334    -1.247  0.8150  0.5207 -0.2542
              Bcc     0.0254    13.526     4.826     4.512  0.4782 -0.3566  0.8026
 
              Baa    -0.0176    -9.381    -3.347    -3.129 -0.1041  0.0092  0.9945
    36 H(1)   Bbb    -0.0026    -1.376    -0.491    -0.459  0.9904 -0.0908  0.1045
              Bcc     0.0202    10.757     3.838     3.588  0.0912  0.9958  0.0004
 

 ---------------------------------------------------------------------------------

 Unable to Open any file for archive entry.
 1\1\GINC-P08R01N27\SP\UMP2-FC\6-31G(d)\C14H18O4(1-,2)\JL3566\26-Oct-20
 21\0\\# MP2/6-31G* SCF=Tight Density=Current\\<qmtool> simtype="Single
  point calculation" </qmtool> Q1H-sp-MP2\\-1,2\C,0,-0.2269999981,-1.53
 10000181,-0.6560000181\C,0,0.2840000093,-2.9119999409,-0.9819999933\C,
 0,-1.6100000143,-1.4620000124,-0.1850000024\O,0,-2.3350000381,-2.48300
 00401,-0.0659999996\C,0,-2.1180000305,-0.1299999952,0.1280000061\O,0,-
 3.4419999123,0.0240000002,0.5090000033\C,0,-1.3279999495,0.9879999757,
 0.0089999996\O,0,-1.8309999704,2.2200000286,0.3880000114\C,0,0.0309999
 995,0.9350000024,-0.4970000088\O,0,0.7220000029,2.0050001144,-0.669000
 0296\C,0,0.5389999747,-0.3939999938,-0.7929999828\C,0,1.9720000029,-0.
 4300000072,-1.2539999485\H,0,1.0260000229,-3.260999918,-0.2540000081\H
 ,0,-0.5630000234,-3.6010000706,-0.9589999914\H,0,0.7549999952,-2.94799
 99542,-1.9700000286\C,0,-3.7509999275,-0.6349999905,1.7410000563\H,0,-
 3.5380001068,-1.7020000219,1.6699999571\H,0,-3.1830000877,-0.184000000
 4,2.5659999847\H,0,-4.8179998398,-0.4679999948,1.9090000391\C,0,-2.132
 999897,3.0239999294,-0.75\H,0,-2.9059998989,2.5460000038,-1.3650000095
 \H,0,-2.5150001049,3.9719998837,-0.3610000014\H,0,-1.2300000191,3.2000
 000477,-1.3400000334\H,0,2.1019999981,-1.1749999523,-2.0529999733\H,0,
 2.2119998932,0.5500000119,-1.6720000505\C,0,2.888999939,-0.7829999924,
 -0.1150000021\H,0,2.8800001144,-1.8339999914,0.1790000051\C,0,3.763000
 0114,1.5349999666,0.3269999921\C,0,3.6710000038,0.0529999994,0.5820000
 172\H,0,4.6760001183,1.7840000391,-0.2329999954\H,0,2.8849999905,1.904
 0000439,-0.2070000023\C,0,4.5430002213,-0.4609999955,1.6979999542\H,0,
 4.4499998093,-1.5460000038,1.8140000105\H,0,5.5989999771,-0.2240000069
 ,1.5119999647\H,0,4.2769999504,0.0109999999,2.6530001163\H,0,3.8210000
 992,2.0710000992,1.2819999456\\Version=ES64L-G16RevC.01\State=2-A\HF=-
 840.0323677\MP2=-842.5434346\PUHF=-840.0446989\PMP2-0=-842.5534597\S2=
 0.890065\S2-1=0.834802\S2A=0.763083\RMSD=7.138e-09\Dipole=3.1219199,2.
 4968855,-0.0360241\Quadrupole=-9.9685582,-4.377958,14.3465161,-13.4948
 91,0.039443,-3.5482661\PG=C01 [X(C14H18O4)]\\@
 The archive entry for this job was punched.


 IF YOU'RE NOT PART OF THE SOLUTION,
 THEN YOU'RE PART OF THE PRECIPITATE.
 Job cpu time:       0 days  0 hours 44 minutes 21.6 seconds.
 Elapsed time:       0 days  0 hours 11 minutes 11.9 seconds.
 File lengths (MBytes):  RWF=  15708 Int=      0 D2E=      0 Chk=     16 Scr=      8
 Normal termination of Gaussian 16 at Tue Oct 26 23:37:24 2021.
